
Running Job 1 of 1 input.com
qchem input.com_2497547.0 /tmp/scratch/8664548/qchem2497547/ 1
/nopt/nrel/apps/software/q-chem/6.2-bq/exe/qcprog.exe_s input.com_2497547.0 /tmp/scratch/8664548/qchem2497547/
                  Welcome to Q-Chem
     A Quantum Leap Into The Future Of Chemistry


 Q-Chem 6.2, Q-Chem, Inc., Pleasanton, CA (2024)

 License issued to: National Renewable Energy Laboratory (site)

 E. Epifanovsky,  A. T. B. Gilbert,  Xintian Feng,  Joonho Lee,  Yuezhi Mao,  
 N. Mardirossian,  P. Pokhilko,  A. White,  M. Wormit,  M. P. Coons,  
 A. L. Dempwolff,  Zhengting Gan,  D. Hait,  P. R. Horn,  L. D. Jacobson,  
 I. Kaliman,  J. Kussmann,  A. W. Lange,  Ka Un Lao,  D. S. Levine,  Jie Liu,  
 S. C. McKenzie,  A. F. Morrison,  K. D. Nanda,  F. Plasser,  D. R. Rehn,  
 M. L. Vidal,  Zhi-Qiang You,  Ying Zhu,  Huseyin Aksu,  B. Alam,  
 B. Albrecht,  A. Aldossary,  E. Alguire,  J. H. Andersen,  
 J. E. Arias-Martinez,  V. Athavale,  D. Barton,  K. Begam,  A. Behn,  
 N. Bellonzi,  Y. A. Bernard,  E. J. Berquist,  H. Burton,  A. Carreras,  
 K. Carter-Fenk,  Mathew Chow,  Romit Chakraborty,  Chandrima Chakravarty,  
 Junhan Chen,  A. D. Chien,  K. D. Closser,  V. Cofer-Shabica,  L. Cunha,  
 S. Dasgupta,  Jia Deng,  Joseph Dickinson,  M. de Wergifosse,  
 M. Diedenhofen,  Hainam Do,  Wenjie Dou,  S. Ehlert,  Po-Tung Fang,  
 S. Fatehi,  Qingguo Feng,  Jonathan Fetherolf,  T. Friedhoff,  
 Thomas Froitzheim,  Sarai Folkestad,  B. Ganoe,  J. Gayvert,  Qinghui Ge,  
 G. Gidofalvi,  M. Gimferrer,  M. Goldey,  Montgomery Gray,  J. Gomes,  
 C. Gonzalez-Espinoza,  S. Gulania,  A. Gunina,  J. A. Gyamfi,  
 M. W. D. Hanson-Heine,  P. H. P. Harbach,  A. W. Hauser,  M. F. Herbst,  
 M. Hernandez Vera,  M. Hodecker,  Z. C. Holden,  S. Houck,  Xunkun Huang,  
 Kerwin Hui,  B. C. Huynh,  K. Ikeda,  M. Ivanov,  Nayanthara K. Jayadev,  
 Hyunjun Ji,  Zuxin Jin,  Hanjie Jiang,  Subrata Jana,  B. Kaduk,  
 S. Kaehler,  R. Kang,  K. Khistyaev,  Jaehoon Kim,  Yongbin Kim,  
 P. Klunzinger,  Z. Koczor-Benda,  Joong Hoon Koh,  D. Kosenkov,  
 Saikiran Kotaru,  L. Koulias,  T. Kowalczyk,  C. M. Krauter,  K. Kue,  
 A. Kunitsa,  T. Kus,  A. Landau,  K. V. Lawler,  D. Lefrancois,  S. Lehtola,  
 Rain Li,  Shaozhi Li,  Tao E. Li,  Yi-Pei Li,  Jiashu Liang,  M. Liebenthal,  
 Hung-Hsuan Lin,  You-Sheng Lin,  Fenglai Liu,  Kuan-Yu Liu,  Xiao Liu,  
 M. Loipersberger,  A. Luenser,  C. Malbon,  Aniket Mandal,  Manisha,  
 A. Manjanath,  P. Manohar,  E. Mansoor,  S. F. Manzer,  Shan-Ping Mao,  
 A. V. Marenich,  T. Markovich,  S. Mason,  F. Matz,  S. A. Maurer,  
 Samuel May,  Alexandra McIsaac,  P. F. McLaughlin,  M. F. S. J. Menger,  
 J.-M. Mewes,  S. A. Mewes,  P. Morgante,  Mohammad Mostafanejad,  
 Madhubani Mukherjee,  J. W. Mullinax,  Quyen Nguyen,  Avik Kumar Ojha,  
 K. J. Oosterbaan,  Eno Paenurk,  Xiaoliang Pan,  G. Paran,  V. Parravicini,  
 Alexander C. Paul,  Suranjan K. Paul,  F. Pavosevic,  Zheng Pei,  S. Prager,  
 E. I. Proynov,  E. Ramos,  B. Rana,  A. E. Rask,  A. Rettig,  R. M. Richard,  
 F. Rob,  E. Rossomme,  T. Scheele,  M. Scheurer,  M. Schneider,  
 P. E. Schneider,  Tim K. Schramm,  N. Sergueev,  S. M. Sharada,  
 Hengyuan Shen,  W. Skomorowski,  D. W. Small,  C. J. Stein,  
 Alistair J. Sterling,  Yingli Su,  Yu-Chuan Su,  E. J. Sundstrom,  
 J. Talbot,  Zhen Tao,  J. Thirman,  Hung-Yi Tsai,  T. Tsuchimochi,  
 N. M. Tubman,  C. Utku,  S. P. Veccham,  O. Vydrov,  Rahel Weiss,  
 J. Wenzel,  Jonathan Wong,  J. Witte,  H. Wu,  Yanze Wu,  A. Yamada,  
 Chou-Hsun Yang,  Kun Yao,  S. Yeganeh,  S. R. Yost,  Qi Yu,  A. Zech,  
 F. Zeller,  Chongxiao Zhao,  Igor Ying Zhang,  Xing Zhang,  Yu Zhang,  
 D. Zuev,  A. Aspuru-Guzik,  A. T. Bell,  N. A. Besley,  K. B. Bravaya,  
 B. R. Brooks,  D. Casanova,  Jeng-Da Chai,  Hsing-Ta Chen,  S. Coriani,  
 C. J. Cramer,  A. E. DePrince, III,  R. A. DiStasio Jr.,  A. Dreuw,  
 B. D. Dunietz,  T. R. Furlani,  W. A. Goddard III,  S. Grimme,  
 S. Hammes-Schiffer,  T. Head-Gordon,  W. J. Hehre,  Chao-Ping Hsu,  
 T.-C. Jagau,  Yousung Jung,  A. Klamt,  Jing Kong,  D. S. Lambrecht,  
 Xiangyuan Li,  WanZhen Liang,  N. J. Mayhall,  C. W. McCurdy,  J. B. Neaton,  
 T. Neudecker,  C. Ochsenfeld,  J. A. Parkhill,  R. Peverati,  
 V. A. Rassolov,  Haisheng Ren,  Yihan Shao,  L. V. Slipchenko,  
 R. P. Steele,  J. E. Subotnik,  A. J. W. Thom,  A. Tkatchenko,  
 D. G. Truhlar,  T. Van Voorhis,  Fan Wang,  T. A. Wesolowski,  K. B. Whaley,  
 H. L. Woodcock III,  P. M. Zimmerman,  S. Faraji,  P. M. W. Gill,  
 M. Head-Gordon,  J. M. Herbert,  A. I. Krylov

 Contributors to earlier versions of Q-Chem not listed above: 
 R. D. Adamson,  B. Austin,  R. Baer,  J. Baker,  G. J. O. Beran,  
 K. Brandhorst,  S. T. Brown,  E. F. C. Byrd,  Arup K. Chakraborty,  
 G. K. L. Chan,  Chun-Min Chang,  Yunqing Chen,  C.-L. Cheng,  
 Siu Hung Chien,  D. M. Chipman,  D. L. Crittenden,  H. Dachsel,  
 R. J. Doerksen,  A. D. Dutoi,  R. G. Edgar,  J. Fosso-Tande,  
 L. Fusti-Molnar,  D. Ghosh,  A. Ghysels,  A. Golubeva-Zadorozhnaya,  
 J. Gonthier,  M. S. Gordon,  S. R. Gwaltney,  G. Hawkins,  J. E. Herr,  
 A. Heyden,  S. Hirata,  E. G. Hohenstein,  G. Kedziora,  F. J. Keil,  
 C. Kelley,  Jihan Kim,  R. A. King,  R. Z. Khaliullin,  P. P. Korambath,  
 W. Kurlancheek,  A. Laurent,  A. M. Lee,  M. S. Lee,  S. V. Levchenko,  
 Ching Yeh Lin,  D. Liotard,  E. Livshits,  R. C. Lochan,  I. Lotan,  
 L. A. Martinez-Martinez,  P. E. Maslen,  N. Nair,  D. P. O'Neill,  
 D. Neuhauser,  E. Neuscamman,  C. M. Oana,  R. Olivares-Amaya,  R. Olson,  
 T. M. Perrine,  B. Peters,  P. A. Pieniazek,  A. Prociuk,  Y. M. Rhee,  
 J. Ritchie,  M. A. Rohrdanz,  E. Rosta,  N. J. Russ,  H. F. Schaefer III,  
 M. W. Schmidt,  N. E. Schultz,  S. Sharma,  N. Shenvi,  C. D. Sherrill,  
 A. C. Simmonett,  A. Sodt,  T. Stein,  D. Stuck,  K. S. Thanthiriwatte,  
 V. Vanovschi,  L. Vogt,  Tao Wang,  A. Warshel,  M. A. Watson,  
 C. F. Williams,  Q. Wu,  X. Xu,  Jun Yang,  W. Zhang,  Yan Zhao

   Please cite Q-Chem as follows:
  "Software for the frontiers of quantum chemistry:
   An overview of developments in the Q-Chem 5 package"
   J. Chem. Phys. 155, 084801 (2021)
   https://doi.org/10.1063/5.0055522 (open access)

 Q-Chem 6.2.0 for Intel X86 EM64T Linux

 Parts of Q-Chem use Armadillo 9.900.5 (Nocturnal Misbehaviour).
 http://arma.sourceforge.net/

 Q-Chem begins on Mon Apr 28 05:15:42 2025  

 Host: 
0

     Scratch files written to /tmp/scratch/8664548/qchem2497547//
 May324 |scratch|qcdevops|jenkins|workspace|build_RNUM -1
 Processing $rem in /nopt/nrel/apps/software/q-chem/6.2-bq/config/preferences:
 Processing $rem in /home/hlong/.qchemrc:

 Checking the input file for inconsistencies... 	...done.
 tid: 0x0 [2025.04.28-05:15:42.399] [INFO] Begin brianAPIInit
 tid: 0x0 [2025.04.28-05:15:42.399] [INFO] Detected compatible BrianQC interface version 5
 tid: 0x0 [2025.04.28-05:15:42.400] [INFO] Reading config from /nopt/nrel/apps/software/q-chem/6.2-bq/brianqc_qchem/config.json
 tid: 0x0 [2025.04.28-05:15:42.402] [INFO] Setting Brian root dir to /nopt/nrel/apps/software/q-chem/6.2-bq/brianqc_qchem
 tid: 0x0 [2025.04.28-05:15:42.402] [INFO] Found kernel DB in config: /nopt/nrel/apps/software/q-chem/6.2-bq/brianqc_qchem/integrators/6336139264-1715983310_kernel_g_v1_5_0_96dfbcf834_CUDA_Tesla_H100.db
 tid: 0x0 [2025.04.28-05:15:42.402] [INFO] Found DFT DB in config: /nopt/nrel/apps/software/q-chem/6.2-bq/brianqc_qchem/integrators/13385728-1716812277_dft_kernel_v1_5_0_c0ea4e0e4a_CUDA_Tesla_H100.db
 tid: 0x0 [2025.04.28-05:15:42.402] [INFO] No MM DBs specified in config, using the default: /nopt/nrel/apps/software/q-chem/6.2-bq/brianqc_qchem/integrators/mm.db
 tid: 0x0 [2025.04.28-05:15:42.402] [WARNING] MM features will not be available, because the MM DB does not exist: /nopt/nrel/apps/software/q-chem/6.2-bq/brianqc_qchem/integrators/mm.db
 tid: 0x0 [2025.04.28-05:15:42.402] [INFO] Start BrianQC module initialization
 tid: 0x0 [2025.04.28-05:15:42.429] [INFO] GPU 0# NVIDIA_H100_80GB_HBM3_GPU-bb5addba-1be4-fb03-7866-08416b92112f
 tid: 0x0 [2025.04.28-05:15:42.435] [SYSTEM] BrianQC version: v1_5_0_5a135bfd07 licensed to: Hai Long
 tid: 0x0 [2025.04.28-05:15:42.440] [SYSTEM] Visit us at: https://brianqc.com
 tid: 0x0 [2025.04.28-05:15:42.449] [SYSTEM] BrianQC copyright Streamnovation Ltd. 2013-2022
 tid: 0x0 [2025.04.28-05:15:42.460] [SYSTEM] Contributors: Gy. Cserey, B. Czetenyi, A. Jasz, G. Kis, I. Ladjanszki, A. Rak, G. J. Tornai, A. Vas
 tid: 0x0 [2025.04.28-05:15:42.530] [INFO] Signing in to license server: license.brainqc.com 443
 tid: 0x0 [2025.04.28-05:15:46.424] [ERROR] License server denied login: Internal server error
 tid: 0x0 [2025.04.28-05:15:46.434] [WARNING] Retrying login
 tid: 0x0 [2025.04.28-05:15:50.146] [INFO] Started license watchdog on pid 2498370
 tid: 0x0 [2025.04.28-05:15:50.146] [INFO] Scratch dir is disabled, storing everything in memory
 tid: 0x0 [2025.04.28-05:15:51.397] [INFO] Detected device: CPU
 tid: 0x0 [2025.04.28-05:15:51.397] [INFO] Detected device: CUDA NVIDIA H100 80GB HBM3#0000:64:00.0
 tid: 0x0 [2025.04.28-05:15:51.401] [INFO] Allocating 3 threads for GPU: CUDA NVIDIA H100 80GB HBM3#0000:64:00.0 on node 0
 tid: 0x0 [2025.04.28-05:15:55.926] [INFO] Used GPU count: 1
 tid: 0x0 [2025.04.28-05:15:57.189] [INFO] End BrianQC module initialization
 tid: 0x0 [2025.04.28-05:15:57.194] [INFO] End brianAPIInit
 tid: 0x0 [2025.04.28-05:15:57.194] [INFO] Running preliminary BrianQC license check...
 tid: 0x0 [2025.04.28-05:15:57.194] [INFO] Preliminary BrianQC license check passed

--------------------------------------------------------------
User input:
--------------------------------------------------------------
$molecule
-1 1
C          4.11643       -1.48041       -0.71113
F          3.39409       -2.59960       -0.81726
F          4.22860       -0.91587       -1.91896
C          3.42207       -0.51789        0.28967
O          2.19271       -0.17339       -0.26905
C          1.01327       -0.29967        0.45351
C         -0.13361        0.37168       -0.37411
F          0.01715       -0.04365       -1.67355
F          5.34489       -1.80262       -0.27209
C          4.22273        0.78391        0.56775
F          4.46092        1.43773       -0.57729
F          3.31939       -1.18796        1.47185
F          3.52926        1.58045        1.38565
F          5.39884        0.49440        1.14858
F          1.10896        0.29403        1.66422
F          0.73814       -1.59933        0.65313
O         -1.28286       -0.10001        0.20694
C         -2.58410        0.27338       -0.22864
C         -0.00545        1.92942       -0.40146
C         -3.56377       -0.78378        0.32897
F         -2.86180        1.50249        0.24397
F         -2.61581        0.32085       -1.56915
S         -5.40120       -0.42965        0.07649
F         -3.22844       -1.95967       -0.27102
F         -3.29595       -0.90240        1.65906
F         -0.81928        2.44862       -1.32551
F         -0.30038        2.45428        0.79272
F          1.25554        2.29549       -0.71642
O         -6.01000       -1.70152        0.51923
O         -5.62749        0.73480        0.95974
O         -5.46900       -0.15244       -1.37593
$end

$rem
job_type=opt
basis=6-311++G(2d,2p)
method=b3lyp
$end
--------------------------------------------------------------
 ----------------------------------------------------------------
             Standard Nuclear Orientation (Angstroms)
    I     Atom           X                Y                Z
 ----------------------------------------------------------------
    1      C       4.1164293037     1.4804112804     0.7111283217
    2      F       3.3940892428     2.5996013103     0.8172575923
    3      F       4.2285995215     0.9158721909     1.9189587271
    4      C       3.4220692212     0.5178904848    -0.2896708558
    5      O       2.1927093276     0.1733908182     0.2690495840
    6      C       1.0132692118     0.2996701973    -0.4535103354
    7      C      -0.1336106194    -0.3716792626     0.3741103366
    8      F       0.0171495449     0.0436517190     1.6735500037
    9      F       5.3448892165     1.8026210364     0.2720878986
   10      C       4.2227292691    -0.7839096682    -0.5677500015
   11      F       4.4609194837    -1.4377287960     0.5772904519
   12      F       3.3193889999     1.1879595941    -1.4718513415
   13      F       3.5292592023    -1.5804503271    -1.3856493033
   14      F       5.3988391631    -0.4944000218    -1.1485803924
   15      F       1.1089590729    -0.2940307011    -1.6642199058
   16      F       0.7381390932     1.5993300293    -0.6531312660
   17      O      -1.2828607379     0.1000102244    -0.2069398455
   18      C      -2.5841006477    -0.2733795392     0.2286406266
   19      C      -0.0054505087    -1.9294192334     0.4014614819
   20      C      -3.5637708029     0.7837799769    -0.3289700183
   21      F      -2.8618006337    -1.5024899114    -0.2439684135
   22      F      -2.6158104456    -0.3208485393     1.5691506668
   23      S      -5.4012007412     0.4296500398    -0.0764894810
   24      F      -3.2284407944     1.9596704484     0.2710190530
   25      F      -3.2959510083     0.9023990011    -1.6590601467
   26      F      -0.8192803361    -2.4486185984     1.3255119907
   27      F      -0.3003806499    -2.4542801462    -0.7927180820
   28      F       1.2555395631    -2.2954889116     0.7164215685
   29      O      -6.0100008940     1.7015196672    -0.5192303414
   30      O      -5.6274907924    -0.7348006359    -0.9597385771
   31      O      -5.4690005067     0.1524411208     1.3759307362
 ----------------------------------------------------------------
 Molecular Point Group                 C1    NOp =  1
 Largest Abelian Subgroup              C1    NOp =  1
 Nuclear Repulsion Energy =        4364.44217231 hartrees
 There are      129 alpha and      129 beta electrons
 Requested basis set is 6-311++G(2d,2p)
 There are 224 shells and 845 basis functions

 Total QAlloc Memory Limit 318000 MB
 Mega-Array Size       188 MB
 MEM_STATIC part       192 MB

 -----------------------------------------------------------------------
                STARTING GEOMETRY OPTIMIZER USING LIBOPT3
                by Peter F. McLaughlin, Yu Zhang, Evgeny Epifanovsky
 -----------------------------------------------------------------------

              Initial Energy and Gradient Calculation
   -- Checking Topology for Ill-Behaving Coordinates --

 -------------------------------------------
   Coordinate       |  Removed | Additions 
 -------------------------------------------
	Bonds                     0          0
	Angles                    0          0
	Torsions                  0          0
	Co-Linear Type5s          0          0
	Co-Linear Type6s          0          0
 -------------------------------------------
     Done Checking Topology
 ----------------------------------------------------------------
             Standard Nuclear Orientation (Angstroms)
    I     Atom           X                Y                Z
 ----------------------------------------------------------------
    1      C       4.1164293037     1.4804112804     0.7111283217
    2      F       3.3940892428     2.5996013103     0.8172575923
    3      F       4.2285995215     0.9158721909     1.9189587271
    4      C       3.4220692212     0.5178904848    -0.2896708558
    5      O       2.1927093276     0.1733908182     0.2690495840
    6      C       1.0132692118     0.2996701973    -0.4535103354
    7      C      -0.1336106194    -0.3716792626     0.3741103366
    8      F       0.0171495449     0.0436517190     1.6735500037
    9      F       5.3448892165     1.8026210364     0.2720878986
   10      C       4.2227292691    -0.7839096682    -0.5677500015
   11      F       4.4609194837    -1.4377287960     0.5772904519
   12      F       3.3193889999     1.1879595941    -1.4718513415
   13      F       3.5292592023    -1.5804503271    -1.3856493033
   14      F       5.3988391631    -0.4944000218    -1.1485803924
   15      F       1.1089590729    -0.2940307011    -1.6642199058
   16      F       0.7381390932     1.5993300293    -0.6531312660
   17      O      -1.2828607379     0.1000102244    -0.2069398455
   18      C      -2.5841006477    -0.2733795392     0.2286406266
   19      C      -0.0054505087    -1.9294192334     0.4014614819
   20      C      -3.5637708029     0.7837799769    -0.3289700183
   21      F      -2.8618006337    -1.5024899114    -0.2439684135
   22      F      -2.6158104456    -0.3208485393     1.5691506668
   23      S      -5.4012007412     0.4296500398    -0.0764894810
   24      F      -3.2284407944     1.9596704484     0.2710190530
   25      F      -3.2959510083     0.9023990011    -1.6590601467
   26      F      -0.8192803361    -2.4486185984     1.3255119907
   27      F      -0.3003806499    -2.4542801462    -0.7927180820
   28      F       1.2555395631    -2.2954889116     0.7164215685
   29      O      -6.0100008940     1.7015196672    -0.5192303414
   30      O      -5.6274907924    -0.7348006359    -0.9597385771
   31      O      -5.4690005067     0.1524411208     1.3759307362
 ----------------------------------------------------------------
 Molecular Point Group                 C1    NOp =  1
 Largest Abelian Subgroup              C1    NOp =  1
 Nuclear Repulsion Energy =        4364.44217231 hartrees
 There are      129 alpha and      129 beta electrons
 Requested basis set is 6-311++G(2d,2p)
 There are 224 shells and 845 basis functions
 A cutoff of  1.0D-12 yielded  14748 shell pairs
 There are    222705 function pairs (    251965 Cartesian)
 Smallest overlap matrix eigenvalue = 4.18E-06

 Scale SEOQF with 1.000000e-02/1.000000e-01/1.000000e-01

 Standard Electronic Orientation quadrupole field applied
 Nucleus-field energy     =     0.0000000181 hartrees
 Guess from superposition of atomic densities
 Warning:  Energy on first SCF cycle will be non-variational
 SAD guess density has 257.000000 electrons

 -----------------------------------------------------------------------
  General SCF calculation program by
  Eric Jon Sundstrom, Paul Horn, Yuezhi Mao, Dmitri Zuev, Alec White,
  David Stuck, Shaama M.S., Shane Yost, Joonho Lee, David Small,
  Daniel Levine, Susi Lehtola, Hugh Burton, Evgeny Epifanovsky,
  Bang C. Huynh
 -----------------------------------------------------------------------
 Exchange:     0.2000 Hartree-Fock + 0.0800 Slater + 0.7200 B88
 Correlation:  0.1900 VWN1RPA + 0.8100 LYP
 Using SG-1 standard quadrature grid
 ---- BrianQC HCore successfully initialized ---- 
 ---- BrianQC J/K successfully initialized ---- 
 ---- BrianQC XC successfully initialized ---- 
BrianQC JK build time 1.0000000000 (s)
BrianQC XC build time 1.0000000000 (s)
 A restricted SCF calculation will be
 performed using DIIS
 SCF converges when DIIS error is below 1.0e-08
 ---------------------------------------
  Cycle       Energy         DIIS error
 ---------------------------------------
BrianQC JK build time 3.0e+00 (s)
BrianQC XC build time 1.0e+00 (s)
    1   -2782.8985882340      1.94e-02  
BrianQC JK build time 2.00e+00 (s)
BrianQC XC build time 1.00e+00 (s)
    2   -2776.5790213361      3.58e-03  
BrianQC JK build time 2.00e+00 (s)
BrianQC XC build time 1.00e+00 (s)
    3   -2772.6497985594      7.55e-03  
BrianQC JK build time 2.00e+00 (s)
BrianQC XC build time 1.00e+00 (s)
    4   -2777.1760630719      1.45e-03  
BrianQC JK build time 2.00e+00 (s)
BrianQC XC build time 1.00e+00 (s)
    5   -2777.3248610918      3.30e-04  
BrianQC JK build time 2.00e+00 (s)
BrianQC XC build time 1.00e+00 (s)
    6   -2777.3315281757      2.39e-04  
BrianQC JK build time 2.00e+00 (s)
BrianQC XC build time 1.00e+00 (s)
    7   -2777.3347999137      7.24e-05  
BrianQC JK build time 2.00e+00 (s)
BrianQC XC build time 1.00e+00 (s)
    8   -2777.3350367331      4.11e-05  
BrianQC JK build time 2.00e+00 (s)
BrianQC XC build time 0.00e+00 (s)
    9   -2777.3351362499      1.04e-05  
BrianQC JK build time 2.00e+00 (s)
BrianQC XC build time 1.00e+00 (s)
   10   -2777.3351427645      3.18e-06  
BrianQC JK build time 1.00e+00 (s)
BrianQC XC build time 1.00e+00 (s)
   11   -2777.3351431877      1.09e-06  
BrianQC JK build time 1.00e+00 (s)
BrianQC XC build time 1.00e+00 (s)
   12   -2777.3351432199      3.28e-07  
BrianQC JK build time 2.00e+00 (s)
BrianQC XC build time 0.00e+00 (s)
   13   -2777.3351432394      9.50e-08  
BrianQC JK build time 2.00e+00 (s)
BrianQC XC build time 1.00e+00 (s)
   14   -2777.3351432422      4.67e-08  
BrianQC JK build time 2.00e+00 (s)
BrianQC XC build time 1.00e+00 (s)
   15   -2777.3351432419      1.54e-08  
   16   -2777.3351432400      6.09e-09  Convergence criterion met
 ---------------------------------------
 SCF time:   CPU 1422.39s  wall 83.00s 
 SCF   energy = -2777.33514324
 Total energy = -2777.33514324
 
 --------------------------------------------------------------
 
                    Orbital Energies (a.u.)
 --------------------------------------------------------------
 
 Alpha MOs
 -- Occupied --
-88.9047 -24.6953 -24.6947 -24.6944 -24.6943 -24.6935 -24.6930 -24.6897
-24.6695 -24.6666 -24.6651 -24.6643 -24.6633 -24.6469 -24.6225 -24.6203
-24.5935 -24.5935 -19.1646 -19.1244 -18.9614 -18.9599 -18.9597 -10.4159
-10.4151 -10.3869 -10.3825 -10.3464 -10.3309 -10.3136 -10.2491  -7.9590
 -5.9229  -5.9213  -5.9213  -1.3075  -1.3000  -1.2749  -1.2582  -1.2344
 -1.2162  -1.2148  -1.2132  -1.2128  -1.2120  -1.1936  -1.1849  -1.1837
 -1.1833  -1.1625  -1.1412  -1.1049  -1.0794  -1.0356  -0.9701  -0.8388
 -0.8376  -0.8108  -0.7617  -0.7075  -0.6907  -0.6861  -0.6471  -0.6237
 -0.6069  -0.6027  -0.5946  -0.5886  -0.5797  -0.5742  -0.5696  -0.5629
 -0.5599  -0.5566  -0.5545  -0.5378  -0.5325  -0.5224  -0.5024  -0.4972
 -0.4792  -0.4726  -0.4601  -0.4560  -0.4526  -0.4506  -0.4499  -0.4440
 -0.4423  -0.4300  -0.4287  -0.4238  -0.4224  -0.4201  -0.4184  -0.4120
 -0.4081  -0.4062  -0.4019  -0.3983  -0.3981  -0.3949  -0.3926  -0.3910
 -0.3887  -0.3778  -0.3741  -0.3691  -0.3673  -0.3633  -0.3615  -0.3530
 -0.3473  -0.3413  -0.3312  -0.3262  -0.3112  -0.3104  -0.3089  -0.3047
 -0.3040  -0.2833  -0.2791  -0.1981  -0.1977  -0.1683  -0.1660  -0.1586
 -0.1190
 -- Virtual --
  0.0547   0.0678   0.0754   0.0831   0.0992   0.1003   0.1073   0.1146
  0.1187   0.1227   0.1254   0.1353   0.1405   0.1443   0.1503   0.1508
  0.1552   0.1570   0.1673   0.1694   0.1734   0.1753   0.1796   0.1829
  0.1856   0.1911   0.1919   0.1932   0.1964   0.2026   0.2060   0.2093
  0.2126   0.2127   0.2203   0.2221   0.2246   0.2259   0.2316   0.2338
  0.2387   0.2449   0.2479   0.2512   0.2558   0.2581   0.2596   0.2637
  0.2672   0.2691   0.2732   0.2744   0.2782   0.2829   0.2868   0.2895
  0.2919   0.3008   0.3029   0.3040   0.3147   0.3173   0.3191   0.3235
  0.3274   0.3301   0.3326   0.3352   0.3390   0.3439   0.3464   0.3492
  0.3569   0.3587   0.3633   0.3645   0.3686   0.3696   0.3707   0.3749
  0.3765   0.3782   0.3837   0.3878   0.3902   0.3933   0.3985   0.4031
  0.4036   0.4078   0.4133   0.4134   0.4189   0.4223   0.4244   0.4266
  0.4281   0.4321   0.4365   0.4374   0.4420   0.4453   0.4475   0.4491
  0.4522   0.4559   0.4595   0.4609   0.4653   0.4676   0.4723   0.4736
  0.4769   0.4822   0.4850   0.4888   0.4912   0.4921   0.4982   0.4997
  0.5064   0.5094   0.5155   0.5179   0.5209   0.5238   0.5286   0.5322
  0.5370   0.5396   0.5447   0.5484   0.5515   0.5584   0.5621   0.5686
  0.5716   0.5746   0.5790   0.5843   0.5935   0.5983   0.6051   0.6118
  0.6160   0.6209   0.6310   0.6341   0.6453   0.6511   0.6534   0.6578
  0.6632   0.6696   0.6771   0.6859   0.6922   0.7029   0.7085   0.7121
  0.7181   0.7236   0.7297   0.7371   0.7457   0.7594   0.7664   0.7768
  0.7802   0.8034   0.8048   0.8137   0.8199   0.8237   0.8337   0.8490
  0.8529   0.8565   0.8636   0.8686   0.8717   0.8828   0.9002   0.9118
  0.9237   0.9293   0.9554   0.9694   0.9791   0.9906   1.0050   1.0116
  1.0165   1.0232   1.0449   1.0532   1.0672   1.0825   1.0892   1.0905
  1.1151   1.1272   1.1304   1.1424   1.1522   1.1691   1.1726   1.1821
  1.1894   1.2005   1.2093   1.2216   1.2298   1.2445   1.2495   1.2504
  1.2537   1.2752   1.2771   1.2864   1.2943   1.2981   1.3038   1.3138
  1.3183   1.3211   1.3238   1.3319   1.3394   1.3427   1.3517   1.3607
  1.3627   1.3723   1.3752   1.3813   1.3890   1.3915   1.4077   1.4122
  1.4174   1.4209   1.4322   1.4362   1.4436   1.4489   1.4530   1.4547
  1.4550   1.4646   1.4702   1.4715   1.4743   1.4768   1.4856   1.4867
  1.4937   1.4964   1.4986   1.5045   1.5113   1.5176   1.5187   1.5231
  1.5242   1.5277   1.5326   1.5444   1.5460   1.5474   1.5544   1.5608
  1.5623   1.5663   1.5694   1.5783   1.5802   1.5839   1.5862   1.5909
  1.6031   1.6053   1.6116   1.6222   1.6230   1.6291   1.6364   1.6418
  1.6438   1.6582   1.6672   1.6694   1.6737   1.6830   1.6874   1.6913
  1.7016   1.7087   1.7155   1.7159   1.7300   1.7375   1.7511   1.7589
  1.7639   1.7762   1.7827   1.8086   1.8159   1.8316   1.8622   1.8659
  1.8790   1.8883   1.8999   1.9160   1.9239   1.9324   1.9447   1.9520
  1.9627   1.9768   1.9864   1.9975   2.0001   2.0046   2.0116   2.0225
  2.0325   2.0392   2.0445   2.0549   2.0611   2.0689   2.0751   2.0794
  2.0823   2.0994   2.1026   2.1096   2.1179   2.1289   2.1334   2.1397
  2.1466   2.1505   2.1560   2.1629   2.1680   2.1710   2.1740   2.1783
  2.1829   2.1913   2.1949   2.1986   2.2117   2.2255   2.2276   2.2347
  2.2386   2.2523   2.2549   2.2664   2.2769   2.2824   2.2948   2.3038
  2.3044   2.3148   2.3367   2.3441   2.3502   2.3605   2.3715   2.3817
  2.3884   2.3913   2.4040   2.4110   2.4236   2.4253   2.4269   2.4427
  2.4560   2.4621   2.4709   2.4784   2.4811   2.5174   2.5201   2.5231
  2.5346   2.5411   2.5603   2.5700   2.5786   2.5969   2.6107   2.6217
  2.6486   2.6539   2.6677   2.6727   2.6787   2.6880   2.6919   2.7012
  2.7069   2.7101   2.7160   2.7301   2.7494   2.7594   2.7710   2.7843
  2.7869   2.7982   2.8157   2.8292   2.8387   2.8444   2.8616   2.8697
  2.8831   2.8978   2.9331   2.9450   2.9820   3.0095   3.0197   3.0466
  3.0787   3.0867   3.1085   3.1165   3.1591   3.1684   3.1825   3.2016
  3.2194   3.2392   3.2554   3.3506   3.3669   3.3882   3.4213   3.4379
  3.4429   3.4613   3.4850   3.4882   3.4956   3.5070   3.5203   3.5278
  3.5338   3.5482   3.5567   3.5676   3.5787   3.5899   3.6059   3.6179
  3.6384   3.6422   3.6475   3.6618   3.6672   3.6729   3.6784   3.6940
  3.7115   3.7363   3.7422   3.7549   3.7721   3.7832   3.7889   3.8046
  3.8356   3.8754   3.8828   3.9139   3.9569   3.9849   4.0314   4.1132
  4.2109   4.2191   4.2650   4.2691   4.2809   4.2990   4.3054   4.3152
  4.3310   4.3480   4.3552   4.3641   4.3817   4.3972   4.4468   4.4826
  4.4993   5.1879   5.1957   5.1974   5.2131   5.2403   5.2630   5.2880
  5.2993   5.3142   5.4786   5.4875   5.5233   5.5333   5.8641   5.9167
  6.3405   6.3696   6.3902   6.4044   6.4091   6.4218   6.4287   6.4332
  6.4435   6.4477   6.4516   6.4556   6.4701   6.4759   6.4805   6.4860
  6.4883   6.4927   6.5003   6.5065   6.5113   6.5212   6.5237   6.5275
  6.5369   6.5460   6.5533   6.5641   6.5708   6.5772   6.5839   6.5960
  6.6291   6.6323   6.6517   6.6561   6.6803   6.6949   6.7138   6.7333
  6.7418   6.7636   6.7702   6.8044   6.8191   6.8369   6.8536   6.8570
  6.8673   6.8738   6.8893   6.9091   6.9209   6.9352   6.9642   6.9852
  6.9940   7.0384   7.0905   7.1037   7.1095   7.1136   7.1213   7.1656
  7.2140   7.2212   7.2411   7.3345   7.3390   7.3925   7.4157   7.5248
  7.5323   7.5483   7.6050   7.6622   8.5318   9.0410   9.0460   9.0533
  9.0566   9.0756   9.0802   9.0950   9.0970   9.0990   9.1141   9.1293
  9.1331   9.1474   9.1524   9.1543   9.1573   9.1673   9.1745   9.1789
  9.1804   9.1828   9.1876   9.1930   9.1979   9.2079   9.2158   9.2188
  9.2264   9.2335   9.2388   9.2433   9.2526   9.2620   9.2659   9.2727
  9.2772   9.2816   9.2892   9.2898   9.2968   9.2998   9.3114   9.3206
  9.3254   9.3326   9.3419   9.3981   9.4105   9.4421   9.4462   9.4483
  9.4607   9.4664   9.4789   9.4837   9.4911   9.5156   9.5595   9.6178
  9.6276   9.6416   9.6501   9.6546   9.6576   9.6853   9.6930   9.7097
  9.7131   9.7236   9.7328   9.7337   9.7449   9.7815   9.7828   9.7912
  9.8168   9.8426   9.8544   9.8576   9.8617   9.8669   9.8760   9.9039
  9.9075   9.9238  17.7073  17.7136  17.7741  23.8515  23.8934  23.9373
 23.9432  23.9581  23.9945  24.0217  24.0883  50.0638  50.0764  50.0851
 50.1273  50.1635  66.8553  66.8657  66.8666  66.8893  66.9089  66.9179
 66.9194  66.9270  66.9325  66.9415  66.9579  66.9669  66.9680  66.9835
 66.9903  67.0014  67.0391 189.6702
 --------------------------------------------------------------
 
          Ground-State Mulliken Net Atomic Charges

     Atom                 Charge (a.u.)
  ----------------------------------------
      1 C                     1.372621
      2 F                    -0.289271
      3 F                    -0.285598
      4 C                    -0.470297
      5 O                    -0.199872
      6 C                     0.706932
      7 C                    -0.034732
      8 F                    -0.270348
      9 F                    -0.319543
     10 C                     1.240478
     11 F                    -0.280787
     12 F                    -0.302556
     13 F                    -0.290220
     14 F                    -0.307378
     15 F                    -0.307812
     16 F                    -0.324965
     17 O                    -0.387576
     18 C                     0.639978
     19 C                     1.340930
     20 C                     0.476396
     21 F                    -0.265304
     22 F                    -0.277046
     23 S                     1.251929
     24 F                    -0.301802
     25 F                    -0.304049
     26 F                    -0.290103
     27 F                    -0.269406
     28 F                    -0.357036
     29 O                    -0.596626
     30 O                    -0.635946
     31 O                    -0.660990
  ----------------------------------------
  Sum of atomic charges =    -1.000000

 -----------------------------------------------------------------
                    Cartesian Multipole Moments
 -----------------------------------------------------------------
    Charge (ESU x 10^10)
                -4.8032
    Dipole Moment (Debye)
         X      22.3060      Y      -1.8217      Z       0.2653
       Tot      22.3818
    Quadrupole Moments (Debye-Ang)
        XX    -315.8844     XY      10.8997     YY    -187.4354
        XZ      -2.1466     YZ       0.5734     ZZ    -186.5165
    Octopole Moments (Debye-Ang^2)
       XXX     820.5512    XXY     -71.3122    XYY      73.4674
       YYY     -20.4163    XXZ      19.0875    XYZ       0.2533
       YYZ       4.8024    XZZ      67.4585    YZZ      -2.5994
       ZZZ      -2.8594
    Hexadecapole Moments (Debye-Ang^3)
      XXXX  -18327.9834   XXXY     425.2079   XXYY   -2882.6582
      XYYY      98.6940   YYYY   -1906.2248   XXXZ    -108.8798
      XXYZ      10.3623   XYYZ     -28.8760   YYYZ       7.4203
      XXZZ   -2695.8924   XYZZ      17.9626   YYZZ    -490.9596
      XZZZ       7.0330   YZZZ       1.7072   ZZZZ   -1056.3218
 -----------------------------------------------------------------
 Calculating analytic gradient of the SCF energy
 ---- BrianQC J/K successfully initialized ---- 
 Gradient of SCF Energy
            1           2           3           4           5           6
    1  -0.0024460  -0.0028186   0.0002360   0.0052696   0.0000232  -0.0031138
    2  -0.0020300   0.0032198  -0.0031083  -0.0018626  -0.0009964  -0.0012249
    3  -0.0025060  -0.0005470   0.0025127   0.0040980   0.0031720   0.0028211
            7           8           9          10          11          12
    1   0.0043425  -0.0002485   0.0034264  -0.0034913   0.0001823  -0.0009292
    2  -0.0032355   0.0000879  -0.0007483   0.0031120  -0.0000960   0.0017226
    3  -0.0018506   0.0020272  -0.0023188   0.0004822   0.0040291  -0.0032193
           13          14          15          16          17          18
    1  -0.0035774   0.0030078   0.0016793   0.0001673  -0.0013520  -0.0019390
    2  -0.0022460   0.0025162  -0.0031706   0.0035034   0.0015709   0.0056237
    3  -0.0026591  -0.0008765  -0.0028317  -0.0001514  -0.0026399  -0.0028822
           19          20          21          22          23          24
    1   0.0001543  -0.0034365  -0.0001003   0.0009904   0.0144006   0.0006317
    2   0.0052591  -0.0032497  -0.0045833  -0.0003602   0.0036038   0.0013092
    3   0.0002561   0.0022242  -0.0016863   0.0040771  -0.0024473   0.0018181
           25          26          27          28          29          30
    1   0.0007314  -0.0038524  -0.0012361   0.0038655  -0.0080775  -0.0023379
    2  -0.0009888  -0.0006985  -0.0001404   0.0000190   0.0167131  -0.0156878
    3  -0.0020202   0.0033087  -0.0042420   0.0001072  -0.0055925  -0.0116796
           31
    1  -0.0001519
    2  -0.0038334
    3   0.0192163
 Max gradient component =       1.922E-02
 RMS gradient           =       4.530E-03
 Gradient time:  CPU 28.79 s  wall 38.70 s

 *****************************************************
             Starting BFGS Algorithm
 *****************************************************
            LIBOPT3 RUN PARAMETERS

  Geometry Optimization Coordinates :
	Delocalized Natural Internal Coordinates

  Step Length Selection Method :
	Eigenvector Following Algorithm

  Step Length Limiter :
	Root-Mean-Square of Gradient

  Convergence Criteria :
	Max Gradient Component    	3.00000000e-04
	Max Displacement Component	1.20000000e-03
	Absolute Energy Difference	1.00000000e-06

  Initial Hessian :
	Approximate Hessian - Model Internal Coordinate

  Type of Verification :
	Verify with final updated Hessian
 *****************************************************

	OPTIMIZATION CYCLE:	1

 Scaling Magnitude of Eigenvalues
 	Minimum: -25.00000000	 Maximum: 25.00000000
 87 Hessian Eigenvalues to form next step
   0.00200000   0.00200000   0.00200000   0.00211425   0.00223721
   0.00317285   0.01272165   0.01648945   0.01711013   0.01942148
   0.04876930   0.05306750   0.05317953   0.06832530   0.06865155
   0.06919403   0.08020792   0.08081828   0.08203465   0.08393167
   0.08503962   0.08530526   0.08574908   0.08582890   0.08641446
   0.08778195   0.10035629   0.10087761   0.10835752   0.10943995
   0.13710245   0.17003456   0.17092693   0.18126670   0.18560913
   0.19557377   0.20240245   0.20979246   0.21063918   0.21223129
   0.21448870   0.25000000   0.25000000   0.25000000   0.25000000
   0.25000000   0.25000000   0.25000000   0.25000000   0.25000000
   0.25000000   0.25000000   0.25000000   0.25000000   0.25000000
   0.25000000   0.25000000   0.25000000   0.26368973   0.26555313
   0.27363668   0.27441738   0.28045652   0.42145292   0.46694556
   0.47505926   0.50498104   0.50698198   0.52395599   0.52537408
   0.52553115   0.54633032   0.54958166   0.55923795   0.56370733
   0.56454930   0.56475138   0.56820149   0.57227407   0.57664219
   0.57801009   0.58037149   0.58048382   0.58158656   0.83629422
   0.84094088   0.84471702

 Minimum Search taking a RFO step
 Searching for Lambda that minimizes along all modes
	Value of Lambda   -0.00425166
	Norm  of Stepsize  0.23232729
	RMS   of Stepsize  0.02490810

	Performing Iterative Coordinate Back-Transformation

	  Starting from Previous Position

	  iter:	0	rms: 1.5403634029e-01	maxdev: 4.3612231122e-01
	  iter:	1	rms: 8.5694577332e-03	maxdev: 2.3930582030e-02
	  iter:	2	rms: 2.4724713225e-05	maxdev: 9.3594963499e-05
	  iter:	3	rms: 1.9865713964e-10	maxdev: 1.0317435456e-09	 Success!

	Finished Iterative Coordinate Back-Transformation
 ----------------------------------------------------------------
             Standard Nuclear Orientation (Angstroms)
    I     Atom           X                Y                Z
 ----------------------------------------------------------------
    1      C       4.0546845877     1.4664929694     0.7583185962
    2      F       3.2666932741     2.5229554023     0.9544929697
    3      F       4.2123211958     0.8347686514     1.9234192757
    4      C       3.4071578814     0.5355579634    -0.3136579645
    5      O       2.1996068355     0.1011446105     0.2310817342
    6      C       0.9909619823     0.2249133196    -0.4414945688
    7      C      -0.1323669333    -0.4573017903     0.4214387315
    8      F       0.0392706407    -0.0087020081     1.7050285697
    9      F       5.2516338203     1.9100867906     0.3497281239
   10      C       4.2817535389    -0.7024368722    -0.6942450749
   11      F       4.5566677733    -1.4453853237     0.3823898665
   12      F       3.2659302697     1.2842125053    -1.4390607748
   13      F       3.6377185815    -1.4626014452    -1.5774688007
   14      F       5.4391820416    -0.3179018325    -1.2492469860
   15      F       1.0324404083    -0.3322388653    -1.6682034887
   16      F       0.6935665091     1.5216194298    -0.6037690885
   17      O      -1.2839621719     0.0085234726    -0.1566875766
   18      C      -2.6036033657    -0.2862748869     0.2834891059
   19      C       0.0177975029    -2.0209386114     0.4846929951
   20      C      -3.5256045547     0.7787788920    -0.3661329020
   21      F      -2.9334031540    -1.5241804263    -0.1138713065
   22      F      -2.6659937148    -0.2415263996     1.6192518362
   23      S      -5.3939590127     0.5390186804    -0.1310946760
   24      F      -3.1437055377     1.9767382849     0.1520643725
   25      F      -3.2321979570     0.7995550705    -1.6938789447
   26      F      -0.7772426781    -2.5334012965     1.4223542475
   27      F      -0.2684024451    -2.5896223861    -0.6871526489
   28      F       1.2787693490    -2.3647085091     0.8098324888
   29      O      -5.9159820247     1.7933211041    -0.6815204887
   30      O      -5.6702191617    -0.6639565430    -0.9232469018
   31      O      -5.5156851621     0.3818348966     1.3232400110
 ----------------------------------------------------------------
 Molecular Point Group                 C1    NOp =  1
 Largest Abelian Subgroup              C1    NOp =  1
 Nuclear Repulsion Energy =        4348.58672819 hartrees
 There are      129 alpha and      129 beta electrons
 Applying Cartesian multipole field
    Component          Value
    ---------          -----
     (2,0,0)        1.00000E-12
     (0,2,0)        2.00000E-11
     (0,0,2)       -3.00000E-11
 Nucleus-field energy     = 1.7417359643e-08 hartrees
 Requested basis set is 6-311++G(2d,2p)
 There are 224 shells and 845 basis functions
 A cutoff of  1.0D-12 yielded  14711 shell pairs
 There are    222186 function pairs (    251346 Cartesian)
 Smallest overlap matrix eigenvalue = 4.28E-06
 Guess MOs from SCF MO coefficient file

 -----------------------------------------------------------------------
  General SCF calculation program by
  Eric Jon Sundstrom, Paul Horn, Yuezhi Mao, Dmitri Zuev, Alec White,
  David Stuck, Shaama M.S., Shane Yost, Joonho Lee, David Small,
  Daniel Levine, Susi Lehtola, Hugh Burton, Evgeny Epifanovsky,
  Bang C. Huynh
 -----------------------------------------------------------------------
 Exchange:     0.2000 Hartree-Fock + 0.0800 Slater + 0.7200 B88
 Correlation:  0.1900 VWN1RPA + 0.8100 LYP
 Using SG-1 standard quadrature grid
 ---- BrianQC HCore successfully initialized ---- 
 ---- BrianQC J/K successfully initialized ---- 
 ---- BrianQC XC successfully initialized ---- 
BrianQC JK build time 2.0000000000 (s)
BrianQC XC build time 1.0000000000 (s)
 A restricted SCF calculation will be
 performed using DIIS
 SCF converges when DIIS error is below 1.0e-08
 ---------------------------------------
  Cycle       Energy         DIIS error
 ---------------------------------------
BrianQC JK build time 3.0e+00 (s)
BrianQC XC build time 1.0e+00 (s)
    1   -2777.2661555521      7.71e-04  
BrianQC JK build time 2.00e+00 (s)
BrianQC XC build time 1.00e+00 (s)
    2   -2777.3360779525      1.08e-04  
BrianQC JK build time 2.00e+00 (s)
BrianQC XC build time 0.00e+00 (s)
    3   -2777.3359339185      1.38e-04  
BrianQC JK build time 2.00e+00 (s)
BrianQC XC build time 0.00e+00 (s)
    4   -2777.3369458796      2.56e-05  
BrianQC JK build time 2.00e+00 (s)
BrianQC XC build time 1.00e+00 (s)
    5   -2777.3369694377      1.55e-05  
BrianQC JK build time 2.00e+00 (s)
BrianQC XC build time 1.00e+00 (s)
    6   -2777.3369837363      3.99e-06  
BrianQC JK build time 2.00e+00 (s)
BrianQC XC build time 0.00e+00 (s)
    7   -2777.3369843375      9.80e-07  
BrianQC JK build time 2.00e+00 (s)
BrianQC XC build time 0.00e+00 (s)
    8   -2777.3369844082      2.94e-07  
BrianQC JK build time 1.00e+00 (s)
BrianQC XC build time 1.00e+00 (s)
    9   -2777.3369844317      8.40e-08  
BrianQC JK build time 2.00e+00 (s)
BrianQC XC build time 0.00e+00 (s)
   10   -2777.3369844341      2.70e-08  
BrianQC JK build time 1.00e+00 (s)
BrianQC XC build time 1.00e+00 (s)
   11   -2777.3369844336      1.17e-08  
   12   -2777.3369844345      4.08e-09  Convergence criterion met
 ---------------------------------------
 SCF time:   CPU 1280.34s  wall 70.00s 
 SCF   energy = -2777.33698443
 Total energy = -2777.33698443
 
 --------------------------------------------------------------
 
                    Orbital Energies (a.u.)
 --------------------------------------------------------------
 
 Alpha MOs
 -- Occupied --
-88.9012 -24.6947 -24.6947 -24.6944 -24.6936 -24.6933 -24.6912 -24.6906
-24.6693 -24.6670 -24.6665 -24.6651 -24.6630 -24.6481 -24.6240 -24.6219
-24.5918 -24.5918 -19.1646 -19.1234 -18.9589 -18.9581 -18.9578 -10.4156
-10.4143 -10.3879 -10.3817 -10.3483 -10.3312 -10.3151 -10.2466  -7.9560
 -5.9199  -5.9183  -5.9183  -1.3094  -1.3026  -1.2786  -1.2591  -1.2363
 -1.2164  -1.2152  -1.2147  -1.2131  -1.2125  -1.1955  -1.1862  -1.1856
 -1.1838  -1.1623  -1.1433  -1.1035  -1.0786  -1.0349  -0.9758  -0.8422
 -0.8414  -0.8087  -0.7605  -0.7067  -0.6898  -0.6859  -0.6471  -0.6238
 -0.6073  -0.6030  -0.5946  -0.5884  -0.5805  -0.5745  -0.5702  -0.5638
 -0.5610  -0.5576  -0.5560  -0.5387  -0.5337  -0.5232  -0.5038  -0.4969
 -0.4775  -0.4728  -0.4601  -0.4565  -0.4515  -0.4511  -0.4504  -0.4447
 -0.4421  -0.4311  -0.4292  -0.4232  -0.4222  -0.4204  -0.4191  -0.4134
 -0.4081  -0.4062  -0.4013  -0.3972  -0.3968  -0.3943  -0.3924  -0.3911
 -0.3886  -0.3774  -0.3740  -0.3705  -0.3677  -0.3644  -0.3634  -0.3539
 -0.3478  -0.3406  -0.3309  -0.3263  -0.3107  -0.3105  -0.3082  -0.3046
 -0.3037  -0.2826  -0.2786  -0.1999  -0.1996  -0.1689  -0.1669  -0.1582
 -0.1183
 -- Virtual --
  0.0556   0.0679   0.0756   0.0831   0.0985   0.1001   0.1076   0.1149
  0.1187   0.1229   0.1255   0.1335   0.1400   0.1451   0.1507   0.1517
  0.1544   0.1569   0.1662   0.1686   0.1742   0.1758   0.1799   0.1827
  0.1853   0.1912   0.1928   0.1938   0.1976   0.2032   0.2052   0.2093
  0.2124   0.2135   0.2206   0.2236   0.2264   0.2292   0.2339   0.2350
  0.2403   0.2445   0.2488   0.2527   0.2587   0.2598   0.2618   0.2630
  0.2678   0.2693   0.2714   0.2747   0.2781   0.2810   0.2859   0.2903
  0.2910   0.2972   0.3013   0.3039   0.3139   0.3167   0.3185   0.3219
  0.3265   0.3309   0.3325   0.3353   0.3383   0.3425   0.3453   0.3463
  0.3543   0.3592   0.3625   0.3661   0.3680   0.3704   0.3710   0.3741
  0.3772   0.3784   0.3831   0.3875   0.3893   0.3938   0.3966   0.4000
  0.4052   0.4059   0.4137   0.4150   0.4195   0.4213   0.4242   0.4255
  0.4277   0.4305   0.4337   0.4377   0.4421   0.4437   0.4469   0.4485
  0.4515   0.4555   0.4583   0.4610   0.4624   0.4677   0.4712   0.4729
  0.4746   0.4800   0.4814   0.4859   0.4895   0.4919   0.4973   0.4980
  0.5057   0.5070   0.5132   0.5181   0.5200   0.5224   0.5271   0.5294
  0.5379   0.5402   0.5464   0.5483   0.5505   0.5585   0.5635   0.5652
  0.5687   0.5727   0.5782   0.5849   0.5946   0.6025   0.6032   0.6079
  0.6140   0.6222   0.6315   0.6338   0.6405   0.6472   0.6536   0.6592
  0.6617   0.6662   0.6765   0.6868   0.6926   0.6989   0.7067   0.7087
  0.7151   0.7201   0.7270   0.7371   0.7402   0.7603   0.7631   0.7764
  0.7776   0.7966   0.7994   0.8114   0.8197   0.8245   0.8334   0.8530
  0.8545   0.8593   0.8662   0.8709   0.8746   0.8834   0.9060   0.9082
  0.9210   0.9276   0.9605   0.9716   0.9827   0.9915   1.0092   1.0131
  1.0191   1.0240   1.0438   1.0511   1.0592   1.0822   1.0847   1.0877
  1.1184   1.1253   1.1269   1.1368   1.1497   1.1666   1.1682   1.1770
  1.1886   1.1996   1.2074   1.2186   1.2298   1.2424   1.2446   1.2457
  1.2584   1.2777   1.2793   1.2854   1.2924   1.2945   1.3005   1.3120
  1.3167   1.3211   1.3230   1.3317   1.3384   1.3422   1.3524   1.3575
  1.3601   1.3710   1.3771   1.3811   1.3834   1.3913   1.4058   1.4118
  1.4176   1.4244   1.4338   1.4422   1.4433   1.4457   1.4477   1.4549
  1.4568   1.4662   1.4668   1.4697   1.4703   1.4746   1.4784   1.4825
  1.4864   1.4909   1.4983   1.5007   1.5068   1.5140   1.5163   1.5179
  1.5227   1.5291   1.5319   1.5338   1.5403   1.5427   1.5479   1.5532
  1.5563   1.5614   1.5678   1.5742   1.5750   1.5835   1.5896   1.5962
  1.6000   1.6007   1.6072   1.6154   1.6216   1.6236   1.6331   1.6437
  1.6454   1.6540   1.6593   1.6654   1.6731   1.6763   1.6887   1.6922
  1.6999   1.7067   1.7201   1.7235   1.7257   1.7329   1.7469   1.7519
  1.7573   1.7740   1.7824   1.8040   1.8154   1.8369   1.8549   1.8646
  1.8775   1.8902   1.9010   1.9144   1.9268   1.9354   1.9461   1.9561
  1.9620   1.9825   1.9882   1.9938   1.9997   2.0047   2.0091   2.0265
  2.0397   2.0417   2.0469   2.0558   2.0622   2.0701   2.0756   2.0820
  2.0858   2.0956   2.1025   2.1043   2.1186   2.1246   2.1353   2.1404
  2.1427   2.1498   2.1607   2.1656   2.1692   2.1751   2.1766   2.1793
  2.1809   2.1918   2.1972   2.2046   2.2082   2.2205   2.2270   2.2333
  2.2394   2.2433   2.2500   2.2586   2.2708   2.2801   2.2810   2.2945
  2.3034   2.3115   2.3361   2.3390   2.3433   2.3581   2.3672   2.3739
  2.3835   2.3901   2.3945   2.4044   2.4134   2.4247   2.4276   2.4334
  2.4480   2.4552   2.4607   2.4672   2.4818   2.5021   2.5179   2.5212
  2.5308   2.5360   2.5575   2.5662   2.5808   2.5972   2.6113   2.6191
  2.6439   2.6595   2.6693   2.6787   2.6835   2.6878   2.6925   2.7002
  2.7104   2.7150   2.7192   2.7286   2.7496   2.7582   2.7712   2.7786
  2.7868   2.7966   2.8112   2.8265   2.8413   2.8479   2.8601   2.8686
  2.8847   2.8914   2.9362   2.9405   2.9837   3.0122   3.0200   3.0398
  3.0820   3.0866   3.1085   3.1161   3.1583   3.1654   3.1820   3.2009
  3.2185   3.2389   3.2551   3.3510   3.3602   3.3934   3.4128   3.4322
  3.4403   3.4551   3.4779   3.4880   3.4923   3.5013   3.5170   3.5268
  3.5304   3.5562   3.5603   3.5664   3.5753   3.5890   3.6120   3.6171
  3.6344   3.6438   3.6520   3.6629   3.6669   3.6753   3.6785   3.6896
  3.7024   3.7342   3.7435   3.7585   3.7727   3.7811   3.7929   3.8033
  3.8381   3.8675   3.8774   3.9094   3.9354   3.9801   4.0289   4.1108
  4.2093   4.2229   4.2666   4.2684   4.2808   4.2933   4.2996   4.3115
  4.3224   4.3382   4.3500   4.3604   4.3767   4.3951   4.4311   4.4776
  4.4903   5.1908   5.1977   5.2058   5.2120   5.2400   5.2656   5.2885
  5.2974   5.3107   5.4708   5.4849   5.5317   5.5449   5.8677   5.9261
  6.3483   6.3708   6.4004   6.4061   6.4106   6.4215   6.4278   6.4293
  6.4438   6.4461   6.4481   6.4572   6.4584   6.4723   6.4776   6.4804
  6.4825   6.4890   6.4927   6.5010   6.5052   6.5133   6.5231   6.5245
  6.5306   6.5384   6.5452   6.5542   6.5587   6.5670   6.5888   6.5920
  6.6152   6.6315   6.6458   6.6595   6.6793   6.6983   6.7182   6.7317
  6.7363   6.7688   6.7775   6.8088   6.8229   6.8396   6.8567   6.8601
  6.8705   6.8717   6.8875   6.9084   6.9213   6.9341   6.9743   6.9878
  6.9965   7.0381   7.0795   7.0999   7.1076   7.1172   7.1193   7.1714
  7.2091   7.2222   7.2439   7.3427   7.3471   7.4000   7.4199   7.5320
  7.5384   7.5608   7.6023   7.6590   8.5475   9.0407   9.0476   9.0498
  9.0562   9.0745   9.0769   9.0926   9.0938   9.0989   9.1076   9.1268
  9.1324   9.1454   9.1583   9.1609   9.1620   9.1647   9.1745   9.1795
  9.1814   9.1838   9.1907   9.1944   9.1956   9.2068   9.2161   9.2202
  9.2240   9.2332   9.2353   9.2419   9.2466   9.2613   9.2627   9.2732
  9.2739   9.2795   9.2883   9.2919   9.2951   9.3011   9.3125   9.3195
  9.3252   9.3286   9.3387   9.3955   9.4120   9.4398   9.4452   9.4514
  9.4626   9.4695   9.4805   9.4831   9.4927   9.5162   9.5557   9.6179
  9.6262   9.6417   9.6492   9.6538   9.6562   9.6868   9.6938   9.7097
  9.7141   9.7237   9.7319   9.7339   9.7401   9.7808   9.7840   9.7911
  9.8149   9.8431   9.8553   9.8568   9.8620   9.8700   9.8768   9.9001
  9.9051   9.9193  17.7192  17.7251  17.7743  23.8518  23.8947  23.9424
 23.9500  23.9667  23.9994  24.0217  24.0889  50.0668  50.0772  50.0806
 50.1240  50.1672  66.8562  66.8644  66.8654  66.8911  66.9063  66.9153
 66.9203  66.9255  66.9291  66.9356  66.9548  66.9658  66.9692  66.9836
 66.9887  66.9969  67.0343 189.6944
 --------------------------------------------------------------
 
          Ground-State Mulliken Net Atomic Charges

     Atom                 Charge (a.u.)
  ----------------------------------------
      1 C                     1.355463
      2 F                    -0.289842
      3 F                    -0.288423
      4 C                    -0.431315
      5 O                    -0.199042
      6 C                     0.602415
      7 C                     0.022686
      8 F                    -0.271216
      9 F                    -0.320070
     10 C                     1.235617
     11 F                    -0.283652
     12 F                    -0.300485
     13 F                    -0.285722
     14 F                    -0.310225
     15 F                    -0.305308
     16 F                    -0.323737
     17 O                    -0.402475
     18 C                     0.653940
     19 C                     1.352874
     20 C                     0.476035
     21 F                    -0.264128
     22 F                    -0.277907
     23 S                     1.285523
     24 F                    -0.305018
     25 F                    -0.306261
     26 F                    -0.289414
     27 F                    -0.267869
     28 F                    -0.345435
     29 O                    -0.607037
     30 O                    -0.643744
     31 O                    -0.666228
  ----------------------------------------
  Sum of atomic charges =    -1.000000

 -----------------------------------------------------------------
                    Cartesian Multipole Moments
 -----------------------------------------------------------------
    Charge (ESU x 10^10)
                -4.8032
    Dipole Moment (Debye)
         X      22.2181      Y      -2.3566      Z       0.4942
       Tot      22.3482
    Quadrupole Moments (Debye-Ang)
        XX    -315.1243     XY      13.3812     YY    -188.0713
        XZ      -3.7141     YZ       0.8111     ZZ    -186.5117
    Octopole Moments (Debye-Ang^2)
       XXX     812.5502    XXY     -84.5168    XYY      74.5463
       YYY     -24.4351    XXZ      26.2689    XYZ      -1.2394
       YYZ       5.7563    XZZ      67.0375    YZZ      -5.0751
       ZZZ      -0.4427
    Hexadecapole Moments (Debye-Ang^3)
      XXXX  -18212.4720   XXXY     515.8194   XXYY   -2895.6812
      XYYY     152.5658   YYYY   -1963.4021   XXXZ    -145.4855
      XXYZ      21.6119   XYYZ     -34.7218   YYYZ      24.6697
      XXZZ   -2698.4004   XYZZ      42.7248   YYZZ    -509.8746
      XZZZ       5.3694   YZZZ      15.5670   ZZZZ   -1109.5173
 -----------------------------------------------------------------
 Calculating analytic gradient of the SCF energy
 ---- BrianQC J/K successfully initialized ---- 
 Gradient of SCF Energy
            1           2           3           4           5           6
    1  -0.0013540   0.0008634  -0.0002344   0.0025294  -0.0010746  -0.0015667
    2  -0.0023641   0.0001317   0.0013790  -0.0027565   0.0033410  -0.0024724
    3  -0.0028522   0.0010560   0.0006677   0.0001103   0.0029972   0.0019522
            7           8           9          10          11          12
    1   0.0016641   0.0005803   0.0001318  -0.0017591   0.0006647  -0.0000869
    2  -0.0027425   0.0012687   0.0013530   0.0028211  -0.0014297   0.0020774
    3   0.0001304   0.0001919   0.0008217   0.0005071  -0.0005106  -0.0005130
           13          14          15          16          17          18
    1   0.0021318   0.0005173  -0.0013682  -0.0000831  -0.0005517  -0.0004820
    2  -0.0005606  -0.0017771   0.0006572  -0.0003905   0.0035811   0.0009316
    3   0.0003274  -0.0011039  -0.0015965  -0.0007509  -0.0018871  -0.0001205
           19          20          21          22          23          24
    1  -0.0002438  -0.0014991  -0.0014773  -0.0011079   0.0074095   0.0000410
    2   0.0018582  -0.0017109  -0.0005466   0.0006849   0.0014256   0.0001971
    3  -0.0004754   0.0010867  -0.0008715   0.0012808  -0.0011382  -0.0004234
           25          26          27          28          29          30
    1   0.0003536   0.0024321   0.0005677  -0.0005882  -0.0032364  -0.0020815
    2   0.0004758  -0.0015664  -0.0014542  -0.0014867   0.0058193  -0.0059240
    3   0.0000296   0.0000135  -0.0000657   0.0004314  -0.0025028  -0.0039509
           31
    1  -0.0010916
    2  -0.0008208
    3   0.0071588
 Max gradient component =       7.409E-03
 RMS gradient           =       2.026E-03
 Gradient time:  CPU 26.30 s  wall 37.67 s

     Step 1	:
        Energy is -2777.3369844345
                            Maximum         Tolerance       Converged?
         Gradient           6.70218310e-03	3.00000000e-04	false
         Displacement       9.76117701e-02	1.20000000e-03	false
         Energy change      1.84119450e-03	1.00000000e-06	false


	OPTIMIZATION CYCLE:	2

 Scaling Magnitude of Eigenvalues
 	Minimum: -25.00000000	 Maximum: 25.00000000
 87 Hessian Eigenvalues to form next step
   0.00194476   0.00200000   0.00200337   0.00211425   0.00224447
   0.00317064   0.01268894   0.01644370   0.01686746   0.01990922
   0.04876967   0.05307382   0.05327279   0.06828465   0.06905162
   0.06916897   0.08077805   0.08098890   0.08203844   0.08387921
   0.08510348   0.08561910   0.08579222   0.08636411   0.08761054
   0.08778130   0.10048280   0.10789417   0.10943508   0.11024568
   0.13695132   0.16991560   0.17239471   0.18254541   0.18854272
   0.19546477   0.19795235   0.21004884   0.21029056   0.21064189
   0.21381387   0.24423205   0.25000000   0.25000000   0.25000000
   0.25000000   0.25000000   0.25000000   0.25000000   0.25000000
   0.25000000   0.25000000   0.25000000   0.25000000   0.25000000
   0.25000000   0.25000000   0.26113800   0.26424497   0.27110340
   0.27371061   0.27963320   0.35683396   0.42515269   0.46877510
   0.47343711   0.48956320   0.50600086   0.52263391   0.52545320
   0.52666581   0.54328811   0.55041759   0.55510839   0.56279796
   0.56425574   0.56504654   0.56683213   0.57179749   0.57666352
   0.57730591   0.58038604   0.58098869   0.59042208   0.69039198
   0.83825305   0.84316608

 Minimum Search taking a RFO step
 Searching for Lambda that minimizes along all modes
	Value of Lambda   -0.00156567
	Norm  of Stepsize  0.30591628
	RMS   of Stepsize  0.03279767

	Performing Iterative Coordinate Back-Transformation

	  Starting from Previous Position

	  iter:	0	rms: 1.2218919900e-01	maxdev: 3.0913924670e-01
	  iter:	1	rms: 3.8953551469e-03	maxdev: 1.2159371612e-02
	  iter:	2	rms: 2.7155794060e-06	maxdev: 9.0779487855e-06
	  iter:	3	rms: 6.0510434629e-12	maxdev: 3.2466102153e-11	 Success!

	Finished Iterative Coordinate Back-Transformation
 ----------------------------------------------------------------
             Standard Nuclear Orientation (Angstroms)
    I     Atom           X                Y                Z
 ----------------------------------------------------------------
    1      C       4.1176176750     1.3751059646     0.7978564958
    2      F       3.3706888200     2.4457269275     1.0600077279
    3      F       4.2665587949     0.6698438606     1.9200173060
    4      C       3.4216433847     0.5286151974    -0.3170053684
    5      O       2.2118566704     0.0978304417     0.2180722196
    6      C       0.9993428908     0.2996068867    -0.4226593657
    7      C      -0.1349220256    -0.3714780425     0.4420801204
    8      F       0.0104575426     0.0987279486     1.7198446873
    9      F       5.3242573640     1.7920185960     0.3941395374
   10      C       4.2494671342    -0.7144107164    -0.7772782686
   11      F       4.4954721760    -1.5297156990     0.2511132892
   12      F       3.2912255720     1.3346962034    -1.4001710483
   13      F       3.5705415517    -1.3870807622    -1.7033206222
   14      F       5.4177414532    -0.3318066255    -1.3070203703
   15      F       1.0019065604    -0.2160004716    -1.6657212308
   16      F       0.7498748494     1.6113129045    -0.5291080866
   17      O      -1.2845925658     0.0554268688    -0.1576535145
   18      C      -2.5937874120    -0.2720118386     0.2801295806
   19      C       0.0094245945    -1.9314745843     0.5453718501
   20      C      -3.5516557389     0.7415041130    -0.4050412885
   21      F      -2.8696110914    -1.5317775991    -0.0799950272
   22      F      -2.6610644075    -0.1949014422     1.6118914892
   23      S      -5.4157644493     0.4480949664    -0.1518268712
   24      F      -3.2078032749     1.9683599855     0.0684802241
   25      F      -3.2659283488     0.7233070678    -1.7337875922
   26      F      -0.8489031020    -2.4137253038     1.4412633715
   27      F      -0.2136234911    -2.5184523816    -0.6293284251
   28      F       1.2484736207    -2.2661146279     0.9502206256
   29      O      -5.9705108009     1.6520193911    -0.7594164332
   30      O      -5.6464332867    -0.7933739271    -0.8821214777
   31      O      -5.5281223413     0.3584715451     1.3010571979
 ----------------------------------------------------------------
 Molecular Point Group                 C1    NOp =  1
 Largest Abelian Subgroup              C1    NOp =  1
 Nuclear Repulsion Energy =        4355.28424371 hartrees
 There are      129 alpha and      129 beta electrons
 Applying Cartesian multipole field
    Component          Value
    ---------          -----
     (2,0,0)        1.00000E-12
     (0,2,0)        2.00000E-11
     (0,0,2)       -3.00000E-11
 Nucleus-field energy     = 1.4475250602e-08 hartrees
 Requested basis set is 6-311++G(2d,2p)
 There are 224 shells and 845 basis functions
 A cutoff of  1.0D-12 yielded  14721 shell pairs
 There are    222434 function pairs (    251628 Cartesian)
 Smallest overlap matrix eigenvalue = 4.30E-06
 Guess MOs from SCF MO coefficient file

 -----------------------------------------------------------------------
  General SCF calculation program by
  Eric Jon Sundstrom, Paul Horn, Yuezhi Mao, Dmitri Zuev, Alec White,
  David Stuck, Shaama M.S., Shane Yost, Joonho Lee, David Small,
  Daniel Levine, Susi Lehtola, Hugh Burton, Evgeny Epifanovsky,
  Bang C. Huynh
 -----------------------------------------------------------------------
 Exchange:     0.2000 Hartree-Fock + 0.0800 Slater + 0.7200 B88
 Correlation:  0.1900 VWN1RPA + 0.8100 LYP
 Using SG-1 standard quadrature grid
 ---- BrianQC HCore successfully initialized ---- 
 ---- BrianQC J/K successfully initialized ---- 
 ---- BrianQC XC successfully initialized ---- 
BrianQC JK build time 3.0000000000 (s)
BrianQC XC build time 1.0000000000 (s)
 A restricted SCF calculation will be
 performed using DIIS
 SCF converges when DIIS error is below 1.0e-08
 ---------------------------------------
  Cycle       Energy         DIIS error
 ---------------------------------------
BrianQC JK build time 3.0e+00 (s)
BrianQC XC build time 1.0e+00 (s)
    1   -2777.2988425095      5.74e-04  
BrianQC JK build time 2.00e+00 (s)
BrianQC XC build time 1.00e+00 (s)
    2   -2777.3371155654      7.21e-05  
BrianQC JK build time 2.00e+00 (s)
BrianQC XC build time 1.00e+00 (s)
    3   -2777.3371565658      8.29e-05  
BrianQC JK build time 2.00e+00 (s)
BrianQC XC build time 1.00e+00 (s)
    4   -2777.3374974277      1.90e-05  
BrianQC JK build time 2.00e+00 (s)
BrianQC XC build time 1.00e+00 (s)
    5   -2777.3375131216      9.43e-06  
BrianQC JK build time 2.00e+00 (s)
BrianQC XC build time 1.00e+00 (s)
    6   -2777.3375182337      2.35e-06  
BrianQC JK build time 1.00e+00 (s)
BrianQC XC build time 1.00e+00 (s)
    7   -2777.3375183941      7.19e-07  
BrianQC JK build time 1.00e+00 (s)
BrianQC XC build time 1.00e+00 (s)
    8   -2777.3375184248      2.21e-07  
BrianQC JK build time 1.00e+00 (s)
BrianQC XC build time 1.00e+00 (s)
    9   -2777.3375184465      4.20e-08  
BrianQC JK build time 1.00e+00 (s)
BrianQC XC build time 1.00e+00 (s)
   10   -2777.3375184475      1.65e-08  
   11   -2777.3375184467      4.76e-09  Convergence criterion met
 ---------------------------------------
 SCF time:   CPU 1141.72s  wall 63.00s 
 SCF   energy = -2777.33751845
 Total energy = -2777.33751845
 
 --------------------------------------------------------------
 
                    Orbital Energies (a.u.)
 --------------------------------------------------------------
 
 Alpha MOs
 -- Occupied --
-88.8990 -24.6947 -24.6946 -24.6945 -24.6940 -24.6933 -24.6920 -24.6905
-24.6685 -24.6655 -24.6654 -24.6641 -24.6628 -24.6469 -24.6226 -24.6205
-24.5908 -24.5907 -19.1637 -19.1219 -18.9577 -18.9573 -18.9569 -10.4145
-10.4142 -10.3853 -10.3813 -10.3467 -10.3293 -10.3127 -10.2443  -7.9542
 -5.9180  -5.9165  -5.9164  -1.3098  -1.3029  -1.2775  -1.2597  -1.2370
 -1.2171  -1.2157  -1.2153  -1.2140  -1.2133  -1.1949  -1.1854  -1.1848
 -1.1840  -1.1614  -1.1428  -1.1026  -1.0794  -1.0360  -0.9797  -0.8449
 -0.8444  -0.8081  -0.7587  -0.7062  -0.6896  -0.6843  -0.6466  -0.6229
 -0.6072  -0.6032  -0.5948  -0.5874  -0.5808  -0.5743  -0.5706  -0.5632
 -0.5610  -0.5573  -0.5552  -0.5395  -0.5334  -0.5225  -0.5029  -0.4960
 -0.4759  -0.4730  -0.4604  -0.4569  -0.4513  -0.4509  -0.4503  -0.4448
 -0.4418  -0.4303  -0.4285  -0.4236  -0.4223  -0.4202  -0.4189  -0.4128
 -0.4079  -0.4059  -0.4012  -0.3978  -0.3965  -0.3941  -0.3927  -0.3911
 -0.3884  -0.3770  -0.3738  -0.3695  -0.3669  -0.3635  -0.3609  -0.3527
 -0.3465  -0.3410  -0.3301  -0.3261  -0.3108  -0.3105  -0.3065  -0.3040
 -0.3033  -0.2806  -0.2777  -0.2014  -0.2011  -0.1698  -0.1682  -0.1571
 -0.1183
 -- Virtual --
  0.0570   0.0685   0.0784   0.0831   0.0995   0.1013   0.1086   0.1162
  0.1209   0.1233   0.1257   0.1344   0.1413   0.1460   0.1513   0.1524
  0.1557   0.1574   0.1670   0.1696   0.1755   0.1770   0.1808   0.1850
  0.1856   0.1916   0.1936   0.1951   0.1990   0.2043   0.2053   0.2098
  0.2124   0.2144   0.2215   0.2237   0.2270   0.2299   0.2354   0.2369
  0.2398   0.2452   0.2493   0.2538   0.2591   0.2609   0.2623   0.2662
  0.2692   0.2702   0.2726   0.2757   0.2795   0.2816   0.2892   0.2910
  0.2933   0.2977   0.3040   0.3051   0.3146   0.3182   0.3209   0.3236
  0.3263   0.3318   0.3329   0.3376   0.3414   0.3435   0.3454   0.3478
  0.3545   0.3598   0.3617   0.3679   0.3684   0.3705   0.3738   0.3759
  0.3772   0.3796   0.3841   0.3886   0.3908   0.3979   0.4001   0.4023
  0.4056   0.4083   0.4147   0.4164   0.4204   0.4235   0.4249   0.4266
  0.4285   0.4320   0.4337   0.4379   0.4417   0.4438   0.4471   0.4494
  0.4508   0.4544   0.4585   0.4614   0.4617   0.4684   0.4709   0.4743
  0.4764   0.4812   0.4824   0.4878   0.4902   0.4938   0.4981   0.5014
  0.5062   0.5076   0.5118   0.5157   0.5217   0.5252   0.5269   0.5281
  0.5412   0.5439   0.5474   0.5491   0.5540   0.5586   0.5647   0.5655
  0.5695   0.5738   0.5781   0.5869   0.5947   0.6026   0.6053   0.6140
  0.6158   0.6217   0.6283   0.6330   0.6437   0.6485   0.6539   0.6598
  0.6640   0.6671   0.6765   0.6937   0.6955   0.7040   0.7069   0.7089
  0.7139   0.7202   0.7271   0.7376   0.7421   0.7583   0.7639   0.7760
  0.7839   0.7920   0.8036   0.8130   0.8209   0.8260   0.8358   0.8529
  0.8583   0.8600   0.8661   0.8701   0.8748   0.8847   0.9055   0.9083
  0.9214   0.9249   0.9613   0.9720   0.9841   0.9920   1.0145   1.0160
  1.0212   1.0268   1.0457   1.0539   1.0604   1.0829   1.0853   1.0906
  1.1171   1.1242   1.1289   1.1366   1.1536   1.1619   1.1691   1.1775
  1.1888   1.2039   1.2114   1.2223   1.2301   1.2408   1.2477   1.2550
  1.2611   1.2787   1.2792   1.2857   1.2933   1.2962   1.3032   1.3129
  1.3163   1.3197   1.3243   1.3352   1.3392   1.3434   1.3517   1.3566
  1.3626   1.3703   1.3780   1.3831   1.3847   1.3942   1.4076   1.4143
  1.4179   1.4269   1.4363   1.4431   1.4460   1.4468   1.4493   1.4548
  1.4575   1.4672   1.4688   1.4703   1.4727   1.4776   1.4806   1.4859
  1.4894   1.4907   1.4965   1.5031   1.5095   1.5161   1.5170   1.5187
  1.5264   1.5309   1.5328   1.5358   1.5391   1.5428   1.5512   1.5564
  1.5646   1.5661   1.5679   1.5745   1.5790   1.5854   1.5881   1.5951
  1.5968   1.6015   1.6137   1.6160   1.6233   1.6309   1.6344   1.6471
  1.6481   1.6535   1.6612   1.6657   1.6772   1.6789   1.6887   1.6916
  1.7016   1.7055   1.7169   1.7221   1.7289   1.7337   1.7492   1.7514
  1.7588   1.7751   1.7828   1.7902   1.8147   1.8379   1.8537   1.8628
  1.8795   1.8859   1.9002   1.9195   1.9296   1.9374   1.9479   1.9597
  1.9614   1.9886   1.9911   1.9933   2.0015   2.0058   2.0098   2.0260
  2.0327   2.0409   2.0502   2.0576   2.0638   2.0712   2.0759   2.0796
  2.0831   2.0968   2.1001   2.1068   2.1261   2.1296   2.1344   2.1364
  2.1429   2.1509   2.1630   2.1653   2.1715   2.1731   2.1762   2.1802
  2.1865   2.1968   2.2007   2.2038   2.2088   2.2235   2.2299   2.2313
  2.2369   2.2464   2.2479   2.2582   2.2770   2.2812   2.2894   2.3018
  2.3071   2.3144   2.3352   2.3403   2.3433   2.3540   2.3682   2.3873
  2.3887   2.3933   2.4031   2.4103   2.4178   2.4328   2.4349   2.4436
  2.4509   2.4643   2.4717   2.4826   2.4928   2.5200   2.5242   2.5293
  2.5349   2.5420   2.5700   2.5761   2.5873   2.6017   2.6152   2.6329
  2.6471   2.6609   2.6763   2.6832   2.6854   2.6900   2.6941   2.7025
  2.7161   2.7204   2.7231   2.7359   2.7543   2.7681   2.7736   2.7905
  2.7943   2.8046   2.8162   2.8287   2.8450   2.8608   2.8692   2.8759
  2.8911   2.8963   2.9387   2.9506   2.9885   3.0163   3.0298   3.0462
  3.0909   3.0982   3.1134   3.1234   3.1640   3.1711   3.1874   3.2072
  3.2226   3.2405   3.2696   3.3583   3.3624   3.3951   3.4134   3.4321
  3.4427   3.4556   3.4786   3.4896   3.4960   3.5004   3.5146   3.5263
  3.5294   3.5529   3.5613   3.5695   3.5768   3.5856   3.6113   3.6150
  3.6431   3.6479   3.6537   3.6638   3.6725   3.6745   3.6837   3.6899
  3.7045   3.7314   3.7408   3.7553   3.7737   3.7806   3.7897   3.8081
  3.8386   3.8695   3.8887   3.9107   3.9473   3.9716   4.0313   4.1094
  4.2101   4.2248   4.2715   4.2728   4.2828   4.2957   4.3022   4.3198
  4.3256   4.3409   4.3456   4.3614   4.3770   4.3991   4.4290   4.4765
  4.4934   5.1926   5.1997   5.2107   5.2134   5.2396   5.2669   5.2854
  5.2976   5.3075   5.4757   5.4983   5.5416   5.5569   5.8752   5.9384
  6.3459   6.3734   6.4050   6.4063   6.4188   6.4214   6.4265   6.4296
  6.4419   6.4453   6.4497   6.4593   6.4659   6.4716   6.4772   6.4818
  6.4873   6.4906   6.5006   6.5029   6.5059   6.5205   6.5232   6.5273
  6.5352   6.5413   6.5489   6.5516   6.5670   6.5743   6.5867   6.5934
  6.6203   6.6338   6.6561   6.6646   6.6786   6.7025   6.7154   6.7238
  6.7412   6.7764   6.7817   6.8116   6.8254   6.8427   6.8605   6.8637
  6.8723   6.8823   6.8866   6.9088   6.9220   6.9362   6.9791   6.9907
  6.9982   7.0405   7.0854   7.1031   7.1117   7.1212   7.1263   7.1743
  7.2165   7.2209   7.2459   7.3479   7.3527   7.4051   7.4186   7.5347
  7.5407   7.5667   7.6053   7.6615   8.5574   9.0410   9.0472   9.0500
  9.0562   9.0731   9.0811   9.0920   9.0954   9.1033   9.1112   9.1293
  9.1330   9.1453   9.1589   9.1595   9.1607   9.1643   9.1751   9.1791
  9.1817   9.1841   9.1914   9.1954   9.1961   9.2076   9.2174   9.2211
  9.2257   9.2354   9.2371   9.2423   9.2487   9.2612   9.2726   9.2753
  9.2785   9.2807   9.2900   9.2943   9.2960   9.3031   9.3159   9.3228
  9.3268   9.3333   9.3459   9.3972   9.4122   9.4431   9.4467   9.4506
  9.4636   9.4709   9.4820   9.4853   9.4975   9.5197   9.5647   9.6227
  9.6273   9.6448   9.6528   9.6560   9.6603   9.6921   9.6972   9.7111
  9.7187   9.7279   9.7334   9.7350   9.7412   9.7813   9.7867   9.7927
  9.8180   9.8423   9.8556   9.8605   9.8623   9.8719   9.8781   9.9048
  9.9095   9.9239  17.7280  17.7339  17.7743  23.8566  23.9027  23.9457
 23.9541  23.9721  24.0037  24.0316  24.1021  50.0684  50.0785  50.0822
 50.1283  50.1705  66.8560  66.8642  66.8656  66.8911  66.9080  66.9150
 66.9225  66.9303  66.9331  66.9385  66.9583  66.9681  66.9713  66.9883
 66.9921  66.9985  67.0381 189.7100
 --------------------------------------------------------------
 
          Ground-State Mulliken Net Atomic Charges

     Atom                 Charge (a.u.)
  ----------------------------------------
      1 C                     1.368293
      2 F                    -0.287973
      3 F                    -0.284590
      4 C                    -0.476155
      5 O                    -0.214222
      6 C                     0.636892
      7 C                     0.071139
      8 F                    -0.279188
      9 F                    -0.319181
     10 C                     1.254556
     11 F                    -0.284778
     12 F                    -0.303171
     13 F                    -0.283490
     14 F                    -0.311448
     15 F                    -0.302782
     16 F                    -0.325301
     17 O                    -0.396386
     18 C                     0.624374
     19 C                     1.328431
     20 C                     0.475478
     21 F                    -0.267273
     22 F                    -0.283304
     23 S                     1.305746
     24 F                    -0.307397
     25 F                    -0.308208
     26 F                    -0.290931
     27 F                    -0.275741
     28 F                    -0.333281
     29 O                    -0.613623
     30 O                    -0.648327
     31 O                    -0.668158
  ----------------------------------------
  Sum of atomic charges =    -1.000000

 -----------------------------------------------------------------
                    Cartesian Multipole Moments
 -----------------------------------------------------------------
    Charge (ESU x 10^10)
                -4.8032
    Dipole Moment (Debye)
         X      22.2552      Y      -1.9942      Z       0.5756
       Tot      22.3518
    Quadrupole Moments (Debye-Ang)
        XX    -315.0149     XY      11.3590     YY    -187.3483
        XZ      -4.3124     YZ       0.8447     ZZ    -186.4177
    Octopole Moments (Debye-Ang^2)
       XXX     814.9961    XXY     -73.0812    XYY      72.4639
       YYY     -19.4915    XXZ      29.8952    XYZ      -1.0985
       YYZ       6.0541    XZZ      67.1406    YZZ      -4.3247
       ZZZ       0.7718
    Hexadecapole Moments (Debye-Ang^3)
      XXXX  -18311.0643   XXXY     429.1137   XXYY   -2874.8028
      XYYY     101.8147   YYYY   -1844.9254   XXXZ    -177.4627
      XXYZ      24.7929   XYYZ     -40.8013   YYYZ      25.6454
      XXZZ   -2716.4566   XYZZ      32.0662   YYZZ    -497.3773
      XZZZ      -7.4533   YZZZ      18.6080   ZZZZ   -1144.8819
 -----------------------------------------------------------------
 Calculating analytic gradient of the SCF energy
 ---- BrianQC J/K successfully initialized ---- 
 Gradient of SCF Energy
            1           2           3           4           5           6
    1   0.0000557   0.0007046  -0.0000841   0.0000717  -0.0003695   0.0003569
    2   0.0002409  -0.0005914   0.0006644  -0.0010695   0.0015504   0.0004643
    3   0.0004455   0.0001512  -0.0002538  -0.0011569   0.0008985  -0.0007980
            7           8           9          10          11          12
    1  -0.0000880  -0.0010698  -0.0005851   0.0004517  -0.0001564   0.0001239
    2   0.0012383  -0.0008218   0.0000052  -0.0002881  -0.0000433   0.0001791
    3   0.0010688  -0.0000037   0.0004378  -0.0009413  -0.0005464   0.0003054
           13          14          15          16          17          18
    1   0.0006442  -0.0005142  -0.0001446   0.0012577  -0.0010788   0.0001854
    2   0.0006057  -0.0003724   0.0004545  -0.0011556  -0.0012635  -0.0008488
    3   0.0008437   0.0001113  -0.0004040  -0.0003374   0.0007181   0.0009897
           19          20          21          22          23          24
    1  -0.0007252   0.0004500   0.0012907   0.0006689  -0.0008585  -0.0003954
    2  -0.0014330   0.0005872   0.0003757  -0.0006166  -0.0001058  -0.0002647
    3  -0.0010256  -0.0005085   0.0012997  -0.0011223   0.0000085  -0.0004979
           25          26          27          28          29          30
    1  -0.0003661  -0.0005201  -0.0004865   0.0003102   0.0005874   0.0000904
    2   0.0004655   0.0006063   0.0003433   0.0008761  -0.0010509   0.0011587
    3   0.0004037  -0.0013959   0.0015402  -0.0000550   0.0004246   0.0004041
           31
    1   0.0001929
    2   0.0001098
    3  -0.0010039
 Max gradient component =       1.550E-03
 RMS gradient           =       7.155E-04
 Gradient time:  CPU 27.30 s  wall 38.38 s

     Step 2	:
        Energy is -2777.3375184467
                            Maximum         Tolerance       Converged?
         Gradient           4.42173548e-03	3.00000000e-04	false
         Displacement       1.05202216e-01	1.20000000e-03	false
         Energy change      5.34012125e-04	1.00000000e-06	false


	OPTIMIZATION CYCLE:	3

 Scaling Magnitude of Eigenvalues
 	Minimum: -25.00000000	 Maximum: 25.00000000
 87 Hessian Eigenvalues to form next step
   0.00199587   0.00200300   0.00211016   0.00224342   0.00248570
   0.00316351   0.01309138   0.01591123   0.01729673   0.01976454
   0.04876733   0.05307694   0.05317704   0.06843425   0.06914002
   0.06965312   0.08073141   0.08086874   0.08203381   0.08444859
   0.08507838   0.08552331   0.08585695   0.08629392   0.08677842
   0.08778084   0.09920552   0.10838827   0.10943842   0.11365448
   0.13728878   0.16899330   0.17376609   0.18592037   0.19204943
   0.19431970   0.19584174   0.20793377   0.21009436   0.21068211
   0.21376204   0.24113820   0.25000000   0.25000000   0.25000000
   0.25000000   0.25000000   0.25000000   0.25000000   0.25000000
   0.25000000   0.25000000   0.25000000   0.25000000   0.25000000
   0.25000000   0.25173204   0.26370938   0.26538734   0.27356903
   0.27428506   0.28057914   0.37313038   0.43694304   0.46511096
   0.47372717   0.50287104   0.50963678   0.52531011   0.52545288
   0.52656276   0.54400070   0.55074674   0.55725175   0.56272877
   0.56433539   0.56507218   0.56800742   0.57190936   0.57648821
   0.57840799   0.58039129   0.58135672   0.58449736   0.67685289
   0.83830040   0.84318181

 Minimum Search taking a RFO step
 Searching for Lambda that minimizes along all modes
	Value of Lambda   -0.00044619
	Norm  of Stepsize  0.13753712
	RMS   of Stepsize  0.01474553

	Performing Iterative Coordinate Back-Transformation

	  Starting from Previous Position

	  iter:	0	rms: 7.4751727782e-02	maxdev: 1.8367635926e-01
	  iter:	1	rms: 1.7711773766e-03	maxdev: 6.0395124260e-03
	  iter:	2	rms: 6.7968346276e-07	maxdev: 2.4353412489e-06	 Success!

	Finished Iterative Coordinate Back-Transformation
 ----------------------------------------------------------------
             Standard Nuclear Orientation (Angstroms)
    I     Atom           X                Y                Z
 ----------------------------------------------------------------
    1      C       4.0802209830     1.4264876969     0.7667644441
    2      F       3.3075776465     2.4898066793     0.9835342755
    3      F       4.2367746188     0.7613324358     1.9126824438
    4      C       3.4103480335     0.5262186570    -0.3200165547
    5      O       2.2057092033     0.0872854651     0.2168177412
    6      C       0.9959053497     0.2674501240    -0.4337036877
    7      C      -0.1330011455    -0.4069802788     0.4298700544
    8      F       0.0218331495     0.0608704840     1.7076034703
    9      F       5.2811611171     1.8507583132     0.3523800920
   10      C       4.2661658019    -0.7164136499    -0.7213934103
   11      F       4.5231332420    -1.4772475704     0.3456371110
   12      F       3.2741537759     1.2844340743    -1.4363494893
   13      F       3.6056876461    -1.4430479412    -1.6211444260
   14      F       5.4291437993    -0.3276514856    -1.2592477370
   15      F       1.0155453690    -0.2658387196    -1.6687992683
   16      F       0.7249213792     1.5746792724    -0.5545901210
   17      O      -1.2797031505     0.0306477795    -0.1683164525
   18      C      -2.5956969998    -0.2970557954     0.2508610180
   19      C       0.0134655645    -1.9668485839     0.5273399295
   20      C      -3.5347352087     0.7656648731    -0.3802967683
   21      F      -2.8969652470    -1.5300220677    -0.1772307418
   22      F      -2.6664599663    -0.2855397122     1.5852586065
   23      S      -5.4029179256     0.4948150684    -0.1280840328
   24      F      -3.1624020209     1.9610399957     0.1499970484
   25      F      -3.2548052766     0.8004716650    -1.7103192045
   26      F      -0.8258379858    -2.4520053799     1.4406422759
   27      F      -0.2303398335    -2.5476806114    -0.6473612859
   28      F       1.2599048496    -2.3046098370     0.9061357774
   29      O      -5.9397820197     1.7287293068    -0.6896213683
   30      O      -5.6553729369    -0.7166815927    -0.9000089644
   31      O      -5.5098034936     0.3552761823     1.3210499573
 ----------------------------------------------------------------
 Molecular Point Group                 C1    NOp =  1
 Largest Abelian Subgroup              C1    NOp =  1
 Nuclear Repulsion Energy =        4357.08533404 hartrees
 There are      129 alpha and      129 beta electrons
 Applying Cartesian multipole field
    Component          Value
    ---------          -----
     (2,0,0)        1.00000E-12
     (0,2,0)        2.00000E-11
     (0,0,2)       -3.00000E-11
 Nucleus-field energy     = 1.6076472270e-08 hartrees
 Requested basis set is 6-311++G(2d,2p)
 There are 224 shells and 845 basis functions
 A cutoff of  1.0D-12 yielded  14738 shell pairs
 There are    222638 function pairs (    251868 Cartesian)
 Smallest overlap matrix eigenvalue = 4.24E-06
 Guess MOs from SCF MO coefficient file

 -----------------------------------------------------------------------
  General SCF calculation program by
  Eric Jon Sundstrom, Paul Horn, Yuezhi Mao, Dmitri Zuev, Alec White,
  David Stuck, Shaama M.S., Shane Yost, Joonho Lee, David Small,
  Daniel Levine, Susi Lehtola, Hugh Burton, Evgeny Epifanovsky,
  Bang C. Huynh
 -----------------------------------------------------------------------
 Exchange:     0.2000 Hartree-Fock + 0.0800 Slater + 0.7200 B88
 Correlation:  0.1900 VWN1RPA + 0.8100 LYP
 Using SG-1 standard quadrature grid
 ---- BrianQC HCore successfully initialized ---- 
 ---- BrianQC J/K successfully initialized ---- 
 ---- BrianQC XC successfully initialized ---- 
BrianQC JK build time 2.0000000000 (s)
BrianQC XC build time 1.0000000000 (s)
 A restricted SCF calculation will be
 performed using DIIS
 SCF converges when DIIS error is below 1.0e-08
 ---------------------------------------
  Cycle       Energy         DIIS error
 ---------------------------------------
BrianQC JK build time 2.0e+00 (s)
[...]
 ---------------------------------------
BrianQC JK build time 2.0e+00 (s)
BrianQC XC build time 0.0e+00 (s)
    1   -2777.3378322422      7.00e-06  
BrianQC JK build time 2.00e+00 (s)
BrianQC XC build time 0.00e+00 (s)
    2   -2777.3378379494      7.98e-07  
BrianQC JK build time 2.00e+00 (s)
BrianQC XC build time 1.00e+00 (s)
    3   -2777.3378379774      9.20e-07  
BrianQC JK build time 1.00e+00 (s)
BrianQC XC build time 0.00e+00 (s)
    4   -2777.3378380185      2.16e-07  
BrianQC JK build time 1.00e+00 (s)
BrianQC XC build time 1.00e+00 (s)
    5   -2777.3378380129      1.20e-07  
BrianQC JK build time 1.00e+00 (s)
BrianQC XC build time 1.00e+00 (s)
    6   -2777.3378380160      2.54e-08  
    7   -2777.3378380166      8.12e-09  Convergence criterion met
 ---------------------------------------
 SCF time:   CPU 608.87s  wall 36.00s 
 SCF   energy = -2777.33783802
 Total energy = -2777.33783802
 
 --------------------------------------------------------------
 
                    Orbital Energies (a.u.)
 --------------------------------------------------------------
 
 Alpha MOs
 -- Occupied --
-88.8994 -24.6952 -24.6949 -24.6942 -24.6937 -24.6932 -24.6918 -24.6908
-24.6673 -24.6659 -24.6653 -24.6641 -24.6634 -24.6465 -24.6228 -24.6205
-24.5909 -24.5908 -19.1636 -19.1222 -18.9581 -18.9574 -18.9571 -10.4148
-10.4139 -10.3859 -10.3807 -10.3465 -10.3296 -10.3128 -10.2444  -7.9545
 -5.9184  -5.9168  -5.9168  -1.3093  -1.3023  -1.2772  -1.2591  -1.2370
 -1.2170  -1.2154  -1.2144  -1.2137  -1.2130  -1.1942  -1.1850  -1.1849
 -1.1835  -1.1610  -1.1426  -1.1025  -1.0797  -1.0358  -0.9793  -0.8447
 -0.8441  -0.8087  -0.7592  -0.7063  -0.6896  -0.6847  -0.6466  -0.6229
 -0.6069  -0.6034  -0.5949  -0.5871  -0.5806  -0.5743  -0.5701  -0.5628
 -0.5612  -0.5572  -0.5550  -0.5396  -0.5330  -0.5219  -0.5026  -0.4959
 -0.4758  -0.4729  -0.4602  -0.4569  -0.4510  -0.4507  -0.4502  -0.4446
 -0.4416  -0.4307  -0.4276  -0.4236  -0.4220  -0.4200  -0.4189  -0.4127
 -0.4076  -0.4055  -0.4013  -0.3977  -0.3966  -0.3940  -0.3922  -0.3909
 -0.3876  -0.3776  -0.3726  -0.3695  -0.3676  -0.3630  -0.3622  -0.3528
 -0.3468  -0.3407  -0.3301  -0.3262  -0.3108  -0.3105  -0.3061  -0.3043
 -0.3034  -0.2811  -0.2778  -0.2013  -0.2010  -0.1697  -0.1682  -0.1573
 -0.1184
 -- Virtual --
  0.0569   0.0686   0.0785   0.0830   0.0990   0.1014   0.1089   0.1153
  0.1212   0.1232   0.1258   0.1334   0.1411   0.1465   0.1515   0.1524
  0.1553   0.1577   0.1668   0.1707   0.1745   0.1764   0.1810   0.1844
  0.1871   0.1913   0.1931   0.1948   0.1993   0.2036   0.2049   0.2100
  0.2131   0.2139   0.2226   0.2231   0.2267   0.2297   0.2341   0.2349
  0.2399   0.2460   0.2500   0.2537   0.2589   0.2608   0.2610   0.2651
  0.2685   0.2706   0.2738   0.2750   0.2802   0.2823   0.2881   0.2919
  0.2922   0.2979   0.3058   0.3059   0.3138   0.3172   0.3208   0.3220
  0.3265   0.3309   0.3326   0.3353   0.3394   0.3445   0.3471   0.3479
  0.3547   0.3595   0.3629   0.3670   0.3680   0.3717   0.3735   0.3748
  0.3783   0.3793   0.3833   0.3882   0.3909   0.3959   0.3989   0.4024
  0.4059   0.4067   0.4144   0.4170   0.4197   0.4222   0.4249   0.4270
  0.4285   0.4312   0.4344   0.4384   0.4421   0.4439   0.4465   0.4484
  0.4513   0.4545   0.4593   0.4615   0.4624   0.4691   0.4710   0.4751
  0.4756   0.4822   0.4830   0.4868   0.4884   0.4950   0.4976   0.5005
  0.5060   0.5076   0.5157   0.5185   0.5217   0.5238   0.5268   0.5295
  0.5395   0.5404   0.5473   0.5501   0.5525   0.5585   0.5644   0.5658
  0.5710   0.5740   0.5807   0.5875   0.5917   0.6019   0.6055   0.6104
  0.6158   0.6222   0.6301   0.6312   0.6410   0.6485   0.6495   0.6580
  0.6613   0.6694   0.6776   0.6884   0.6938   0.6985   0.7081   0.7128
  0.7152   0.7223   0.7256   0.7354   0.7427   0.7553   0.7623   0.7742
  0.7808   0.7902   0.8018   0.8111   0.8219   0.8261   0.8330   0.8534
  0.8583   0.8598   0.8663   0.8729   0.8750   0.8877   0.9057   0.9127
  0.9178   0.9253   0.9602   0.9721   0.9839   0.9924   1.0125   1.0168
  1.0231   1.0274   1.0464   1.0550   1.0598   1.0816   1.0867   1.0897
  1.1226   1.1252   1.1282   1.1405   1.1475   1.1630   1.1675   1.1750
  1.1885   1.2039   1.2105   1.2219   1.2299   1.2396   1.2465   1.2535
  1.2616   1.2763   1.2808   1.2868   1.2941   1.2981   1.3041   1.3131
  1.3183   1.3209   1.3223   1.3338   1.3371   1.3459   1.3523   1.3554
  1.3632   1.3715   1.3770   1.3841   1.3870   1.3971   1.4078   1.4155
  1.4169   1.4314   1.4356   1.4393   1.4441   1.4468   1.4506   1.4560
  1.4579   1.4665   1.4677   1.4713   1.4726   1.4801   1.4859   1.4873
  1.4877   1.4927   1.5023   1.5034   1.5100   1.5155   1.5172   1.5204
  1.5236   1.5291   1.5333   1.5346   1.5378   1.5409   1.5514   1.5567
  1.5611   1.5629   1.5664   1.5735   1.5778   1.5828   1.5879   1.5929
  1.5959   1.6004   1.6123   1.6145   1.6201   1.6282   1.6374   1.6438
  1.6486   1.6548   1.6629   1.6654   1.6724   1.6790   1.6879   1.6940
  1.7004   1.7064   1.7159   1.7230   1.7286   1.7330   1.7488   1.7517
  1.7571   1.7780   1.7831   1.7924   1.8175   1.8393   1.8508   1.8632
  1.8742   1.8825   1.8992   1.9170   1.9274   1.9383   1.9468   1.9600
  1.9611   1.9862   1.9889   1.9913   1.9996   2.0064   2.0068   2.0293
  2.0310   2.0415   2.0524   2.0553   2.0652   2.0706   2.0762   2.0821
  2.0864   2.0933   2.0997   2.1078   2.1225   2.1277   2.1325   2.1381
  2.1445   2.1488   2.1611   2.1655   2.1714   2.1745   2.1748   2.1821
  2.1829   2.1947   2.1999   2.2045   2.2106   2.2233   2.2263   2.2325
  2.2353   2.2420   2.2539   2.2651   2.2782   2.2829   2.2922   2.3000
  2.3083   2.3156   2.3361   2.3390   2.3465   2.3596   2.3686   2.3785
  2.3851   2.3937   2.4034   2.4090   2.4164   2.4328   2.4354   2.4444
  2.4516   2.4662   2.4703   2.4842   2.4934   2.5150   2.5230   2.5307
  2.5386   2.5488   2.5677   2.5733   2.5825   2.6033   2.6139   2.6270
  2.6469   2.6607   2.6799   2.6819   2.6843   2.6899   2.6926   2.7014
  2.7136   2.7191   2.7219   2.7339   2.7536   2.7652   2.7746   2.7877
  2.7912   2.8027   2.8140   2.8312   2.8424   2.8611   2.8669   2.8807
  2.8914   2.8965   2.9373   2.9466   2.9893   3.0156   3.0308   3.0503
  3.0889   3.1027   3.1143   3.1227   3.1630   3.1671   3.1876   3.2081
  3.2232   3.2427   3.2704   3.3596   3.3627   3.3940   3.4148   3.4350
  3.4443   3.4545   3.4788   3.4897   3.4937   3.5028   3.5140   3.5205
  3.5277   3.5494   3.5610   3.5671   3.5802   3.5841   3.6119   3.6177
  3.6422   3.6443   3.6564   3.6619   3.6720   3.6785   3.6849   3.6867
  3.7026   3.7317   3.7425   3.7577   3.7734   3.7802   3.7927   3.8066
  3.8411   3.8699   3.8869   3.9021   3.9475   3.9705   4.0305   4.1102
  4.2108   4.2267   4.2731   4.2742   4.2826   4.2921   4.3045   4.3226
  4.3251   4.3416   4.3452   4.3611   4.3752   4.3972   4.4314   4.4810
  4.4965   5.1919   5.1994   5.2094   5.2122   5.2397   5.2669   5.2873
  5.2983   5.3134   5.4763   5.4956   5.5402   5.5552   5.8765   5.9378
  6.3458   6.3728   6.4074   6.4101   6.4220   6.4237   6.4255   6.4291
  6.4426   6.4458   6.4495   6.4589   6.4653   6.4712   6.4737   6.4814
  6.4878   6.4930   6.4969   6.5034   6.5046   6.5199   6.5224   6.5259
  6.5335   6.5426   6.5472   6.5489   6.5660   6.5715   6.5911   6.5974
  6.6163   6.6332   6.6502   6.6654   6.6792   6.7018   6.7182   6.7308
  6.7404   6.7734   6.7817   6.8097   6.8235   6.8403   6.8592   6.8640
  6.8698   6.8792   6.8867   6.9086   6.9218   6.9355   6.9783   6.9891
  6.9977   7.0398   7.0912   7.1061   7.1108   7.1179   7.1217   7.1739
  7.2146   7.2209   7.2494   7.3469   7.3522   7.4047   7.4144   7.5339
  7.5397   7.5654   7.6091   7.6615   8.5567   9.0408   9.0480   9.0497
  9.0555   9.0745   9.0807   9.0923   9.0957   9.1034   9.1106   9.1283
  9.1321   9.1461   9.1579   9.1588   9.1594   9.1645   9.1746   9.1795
  9.1808   9.1831   9.1904   9.1948   9.1980   9.2089   9.2178   9.2225
  9.2266   9.2346   9.2381   9.2417   9.2480   9.2620   9.2700   9.2723
  9.2793   9.2823   9.2895   9.2933   9.2948   9.3029   9.3149   9.3222
  9.3269   9.3318   9.3441   9.3987   9.4117   9.4417   9.4461   9.4492
  9.4623   9.4721   9.4810   9.4867   9.4970   9.5191   9.5665   9.6226
  9.6272   9.6472   9.6503   9.6561   9.6606   9.6928   9.6943   9.7106
  9.7168   9.7271   9.7327   9.7351   9.7430   9.7804   9.7869   9.7939
  9.8173   9.8430   9.8576   9.8579   9.8613   9.8710   9.8754   9.9029
  9.9096   9.9222  17.7266  17.7322  17.7747  23.8562  23.9025  23.9440
 23.9529  23.9712  24.0017  24.0291  24.1001  50.0678  50.0793  50.0840
 50.1293  50.1698  66.8560  66.8633  66.8647  66.8912  66.9084  66.9142
 66.9229  66.9299  66.9312  66.9384  66.9586  66.9682  66.9716  66.9859
 66.9940  66.9984  67.0382 189.7086
 --------------------------------------------------------------
 
          Ground-State Mulliken Net Atomic Charges

     Atom                 Charge (a.u.)
  ----------------------------------------
      1 C                     1.345791
      2 F                    -0.284968
      3 F                    -0.286018
      4 C                    -0.459864
      5 O                    -0.215008
      6 C                     0.621392
      7 C                     0.053891
      8 F                    -0.275792
      9 F                    -0.316592
     10 C                     1.270525
     11 F                    -0.287687
     12 F                    -0.301672
     13 F                    -0.287757
     14 F                    -0.313387
     15 F                    -0.311230
     16 F                    -0.321957
     17 O                    -0.402774
     18 C                     0.639729
     19 C                     1.348264
     20 C                     0.472811
     21 F                    -0.269272
     22 F                    -0.279012
     23 S                     1.301938
     24 F                    -0.308016
     25 F                    -0.308895
     26 F                    -0.290875
     27 F                    -0.274062
     28 F                    -0.332476
     29 O                    -0.614525
     30 O                    -0.648281
     31 O                    -0.664224
  ----------------------------------------
  Sum of atomic charges =    -1.000000

 -----------------------------------------------------------------
                    Cartesian Multipole Moments
 -----------------------------------------------------------------
    Charge (ESU x 10^10)
                -4.8032
    Dipole Moment (Debye)
         X      22.1632      Y      -2.3612      Z       0.2919
       Tot      22.2906
    Quadrupole Moments (Debye-Ang)
        XX    -313.6751     XY      13.7733     YY    -187.9261
        XZ      -2.3837     YZ       0.6712     ZZ    -186.3029
    Octopole Moments (Debye-Ang^2)
       XXX     805.2205    XXY     -85.5441    XYY      74.8884
       YYY     -24.3945    XXZ      19.2593    XYZ      -0.3220
       YYZ       4.9062    XZZ      66.0190    YZZ      -5.6086
       ZZZ      -2.8940
    Hexadecapole Moments (Debye-Ang^3)
      XXXX  -18123.4473   XXXY     531.1705   XXYY   -2888.4244
      XYYY     164.1323   YYYY   -1951.5740   XXXZ     -85.6060
      XXYZ      17.4776   XYYZ     -22.9843   YYYZ      21.8147
      XXZZ   -2683.1577   XYZZ      50.6670   YYZZ    -505.8343
      XZZZ      40.3024   YZZZ      12.8501   ZZZZ   -1097.9072
 -----------------------------------------------------------------
 Calculating analytic gradient of the SCF energy
 ---- BrianQC J/K successfully initialized ---- 
 Gradient of SCF Energy
            1           2           3           4           5           6
    1  -0.0000156   0.0000095  -0.0000028   0.0000315  -0.0000371   0.0000302
    2  -0.0000153  -0.0000175  -0.0000121   0.0000241   0.0000033  -0.0000415
    3   0.0000040   0.0000358   0.0000131  -0.0000204   0.0000249  -0.0000292
            7           8           9          10          11          12
    1  -0.0000200   0.0000069   0.0000013   0.0000059   0.0000011  -0.0000076
    2  -0.0000047  -0.0000087   0.0000081   0.0000232  -0.0000036   0.0000079
    3  -0.0000397   0.0000148   0.0000242   0.0000041  -0.0000292   0.0000223
           13          14          15          16          17          18
    1   0.0000080  -0.0000047  -0.0000074  -0.0000206   0.0000067   0.0000051
    2   0.0000103  -0.0000015   0.0000256   0.0000373  -0.0000038  -0.0000025
    3  -0.0000153  -0.0000113   0.0000162   0.0000243   0.0000106  -0.0000060
           19          20          21          22          23          24
    1   0.0000382   0.0000007   0.0000037  -0.0000070  -0.0000531  -0.0000106
    2   0.0000127   0.0000169   0.0000011  -0.0000154   0.0000003  -0.0000084
    3   0.0000560   0.0000199  -0.0000206  -0.0000039   0.0000193   0.0000275
           25          26          27          28          29          30
    1  -0.0000043   0.0000130  -0.0000073  -0.0000344   0.0000223   0.0000192
    2   0.0000056  -0.0000148  -0.0000106  -0.0000101   0.0000212  -0.0000107
    3   0.0000007  -0.0000466  -0.0000678  -0.0000363   0.0000126  -0.0000174
           31
    1   0.0000292
    2  -0.0000161
    3   0.0000133
 Max gradient component =       6.777E-05
 RMS gradient           =       2.142E-05
 Gradient time:  CPU 26.07 s  wall 37.85 s

     Step 12	:
        Energy is -2777.3378380166
                            Maximum         Tolerance       Converged?
         Gradient           4.58591174e-05	3.00000000e-04	true
         Displacement       2.86688014e-03	1.20000000e-03	false
         Energy change      2.06920049e-07	1.00000000e-06	true

	 Optimization Converged in 12 cycles

 *****************************************************
             End of BFGS Algorithm
 *****************************************************
		----------------------------------
		   Verification of Optimization
		----------------------------------

 Eigenvalues of Hessian in Optimization Verification
   0.00165062   0.00187535   0.00286581   0.00307563   0.00342239
   0.00606401   0.00675666   0.01430710   0.01757348   0.02391227
   0.04873756   0.05301515   0.05340626   0.06865267   0.07204851
   0.07319766   0.08060151   0.08094374   0.08245472   0.08505032
   0.08563444   0.08610371   0.08655932   0.08764497   0.08873359
   0.09431353   0.10267961   0.10847199   0.10941217   0.11392763
   0.13755025   0.17111875   0.17406194   0.17945350   0.19255026
   0.19739747   0.20089576   0.20561122   0.21025492   0.21159059
   0.23531659   0.24127843   0.24581620   0.24751806   0.24872695
   0.24925687   0.24993848   0.25000000   0.25000000   0.25000000
   0.25000000   0.25039299   0.25298029   0.26045010   0.26466247
   0.26889696   0.27270270   0.27475452   0.27977612   0.32294487
   0.37358145   0.38889171   0.42223635   0.44974074   0.45906915
   0.48626810   0.49302606   0.51224374   0.52128986   0.52598069
   0.52706641   0.54359920   0.54866996   0.55062974   0.56152959
   0.56326688   0.56411142   0.56817677   0.57061314   0.57154062
   0.57605786   0.58075616   0.58264166   0.59387455   0.68556324
   0.83774565   0.84298667

 Found a minimum
		---------------------------------
		       End of Verification
		---------------------------------

 Final energy is -2777.337838016643

	******************************
	**  OPTIMIZATION CONVERGED  **
	******************************
 ----------------------------------------------------------------
             Standard Nuclear Orientation (Angstroms)
    I     Atom           X                Y                Z
 ----------------------------------------------------------------
    1      C       4.0004209487     1.4708906963     0.7489228947
    2      F       3.1652632606     2.4923926161     0.9297010770
    3      F       4.1670655801     0.8383820662     1.9126523269
    4      C       3.4127324822     0.5082279606    -0.3305631611
    5      O       2.2159399267     0.0015111264     0.1666690091
    6      C       1.0016688267     0.2251429006    -0.4601103210
    7      C      -0.1302619264    -0.4463887431     0.4007067117
    8      F       0.0357829517     0.0100212640     1.6824430828
    9      F       5.1849002127     1.9572259345     0.3543685234
   10      C       4.3329691723    -0.7066549974    -0.6685588425
   11      F       4.5575932490    -1.4541890869     0.4142475635
   12      F       3.2775922486     1.2272980611    -1.4724393182
   13      F       3.7415558337    -1.4600156024    -1.5959430135
   14      F       5.5102099061    -0.2900694589    -1.1515325389
   15      F       0.9986215205    -0.2793736388    -1.7082245335
   16      F       0.7538970214     1.5399113506    -0.5495514085
   17      O      -1.2762124480     0.0078981604    -0.1862980582
   18      C      -2.5929356432    -0.3016828864     0.2460087394
   19      C      -0.0000318924    -2.0081122082     0.4831892284
   20      C      -3.5234306901     0.7768344298    -0.3684474003
   21      F      -2.9131428222    -1.5288187776    -0.1873135948
   22      F      -2.6499239034    -0.2979908753     1.5816512949
   23      S      -5.3911575844     0.5529238774    -0.0716486638
   24      F      -3.1134467976     1.9680793973     0.1439688624
   25      F      -3.2723880409     0.7971897187    -1.7049938182
   26      F      -0.8610597033    -2.4984270922     1.3735462803
   27      F      -0.2298476259    -2.5725467522    -0.7039881616
   28      F       1.2345127904    -2.3655446453     0.8795808556
   29      O      -5.9145099176     1.7849765284    -0.6528696701
   30      O      -5.6870154392    -0.6720967048    -0.8083086927
   31      O      -5.4715331782     0.4513502282     1.3832254790
 ----------------------------------------------------------------
 Molecular Point Group                 C1    NOp =  1
 Largest Abelian Subgroup              C1    NOp =  1
 Nuclear Repulsion Energy =        4354.95247491 hartrees
 There are      129 alpha and      129 beta electrons

Z-matrix Print:
$molecule
-1 1
S 
O  1 1.459339
O  1 1.459752 2 115.773982
O  1 1.460629 2 115.828816 3 -140.184208 0
C  1 1.904371 2 100.975270 3 109.946202 0
F  5 1.360045 1 109.871595 2 53.742875 0
F  5 1.360071 1 109.629961 2 -64.244781 0
C  5 1.551315 1 116.410246 2 174.447378 0
F  8 1.336863 5 111.606922 1 -64.309510 0
F  8 1.340210 5 111.419765 1 57.006018 0
O  8 1.420032 5 106.500555 1 175.545758 0
C  11 1.365340 8 125.087708 5 160.988286 0
F  12 1.370667 11 113.136389 8 -64.358176 0
C  12 1.569313 11 115.047333 8 57.402747 0
F  14 1.332109 12 110.351911 11 -70.758859 0
F  14 1.334463 12 111.092333 11 50.412350 0
F  14 1.344985 12 110.862607 11 170.420328 0
C  12 1.572650 11 103.102705 8 -178.867736 0
F  18 1.340898 12 108.795942 11 50.775518 0
F  18 1.346230 12 110.231787 11 -67.195870 0
O  18 1.384672 12 108.327745 11 170.965863 0
C  21 1.391515 18 122.253280 12 -178.009580 0
F  22 1.356173 21 114.094437 18 -0.191928 0
C  22 1.561095 21 107.515869 18 -118.433933 0
F  24 1.333178 22 109.200397 21 60.919186 0
F  24 1.334816 22 111.062807 21 -59.083134 0
F  24 1.338919 22 110.748500 21 -179.835693 0
C  22 1.561213 21 107.530822 18 118.335609 0
F  28 1.331779 22 109.314429 21 -63.026390 0
F  28 1.334955 22 110.952306 21 57.047518 0
F  28 1.339846 22 110.669911 21 177.630241 0
$end

 -----------------------------------------------------------------------
                  END OF GEOMETRY OPTIMIZER USING LIBOPT3               
 -----------------------------------------------------------------------
 Total job time:  1227.35s(wall), 13036.84s(cpu) 
 Mon Apr 28 05:36:09 2025

        *************************************************************
        *                                                           *
        *  Thank you very much for using Q-Chem.  Have a nice day.  *
        *                                                           *
        *************************************************************


 tid: 0x0 [2025.04.28-05:36:09.395] [INFO] Begin brianAPIRelease
 tid: 0x0 [2025.04.28-05:36:11.215] [INFO] End brianAPIRelease
