
Running Job 1 of 1 input.com
qchem input.com_617497.0 /scratch/hlong/8618274/qchem617497/ 1
/nopt/nrel/apps/software/q-chem/6.2/exe/qcprog.exe_s input.com_617497.0 /scratch/hlong/8618274/qchem617497/
                  Welcome to Q-Chem
     A Quantum Leap Into The Future Of Chemistry


 Q-Chem 6.2, Q-Chem, Inc., Pleasanton, CA (2024)

 License issued to: National Renewable Energy Laboratory (site)

 E. Epifanovsky,  A. T. B. Gilbert,  Xintian Feng,  Joonho Lee,  Yuezhi Mao,  
 N. Mardirossian,  P. Pokhilko,  A. White,  M. Wormit,  M. P. Coons,  
 A. L. Dempwolff,  Zhengting Gan,  D. Hait,  P. R. Horn,  L. D. Jacobson,  
 I. Kaliman,  J. Kussmann,  A. W. Lange,  Ka Un Lao,  D. S. Levine,  Jie Liu,  
 S. C. McKenzie,  A. F. Morrison,  K. D. Nanda,  F. Plasser,  D. R. Rehn,  
 M. L. Vidal,  Zhi-Qiang You,  Ying Zhu,  Huseyin Aksu,  B. Alam,  
 B. Albrecht,  A. Aldossary,  E. Alguire,  J. H. Andersen,  
 J. E. Arias-Martinez,  V. Athavale,  D. Barton,  K. Begam,  A. Behn,  
 N. Bellonzi,  Y. A. Bernard,  E. J. Berquist,  H. Burton,  A. Carreras,  
 K. Carter-Fenk,  Mathew Chow,  Romit Chakraborty,  Chandrima Chakravarty,  
 Junhan Chen,  A. D. Chien,  K. D. Closser,  V. Cofer-Shabica,  L. Cunha,  
 S. Dasgupta,  Jia Deng,  Joseph Dickinson,  M. de Wergifosse,  
 M. Diedenhofen,  Hainam Do,  Wenjie Dou,  S. Ehlert,  Po-Tung Fang,  
 S. Fatehi,  Qingguo Feng,  Jonathan Fetherolf,  T. Friedhoff,  
 Thomas Froitzheim,  Sarai Folkestad,  B. Ganoe,  J. Gayvert,  Qinghui Ge,  
 G. Gidofalvi,  M. Gimferrer,  M. Goldey,  Montgomery Gray,  J. Gomes,  
 C. Gonzalez-Espinoza,  S. Gulania,  A. Gunina,  J. A. Gyamfi,  
 M. W. D. Hanson-Heine,  P. H. P. Harbach,  A. W. Hauser,  M. F. Herbst,  
 M. Hernandez Vera,  M. Hodecker,  Z. C. Holden,  S. Houck,  Xunkun Huang,  
 Kerwin Hui,  B. C. Huynh,  K. Ikeda,  M. Ivanov,  Nayanthara K. Jayadev,  
 Hyunjun Ji,  Zuxin Jin,  Hanjie Jiang,  Subrata Jana,  B. Kaduk,  
 S. Kaehler,  R. Kang,  K. Khistyaev,  Jaehoon Kim,  Yongbin Kim,  
 P. Klunzinger,  Z. Koczor-Benda,  Joong Hoon Koh,  D. Kosenkov,  
 Saikiran Kotaru,  L. Koulias,  T. Kowalczyk,  C. M. Krauter,  K. Kue,  
 A. Kunitsa,  T. Kus,  A. Landau,  K. V. Lawler,  D. Lefrancois,  S. Lehtola,  
 Rain Li,  Shaozhi Li,  Tao E. Li,  Yi-Pei Li,  Jiashu Liang,  M. Liebenthal,  
 Hung-Hsuan Lin,  You-Sheng Lin,  Fenglai Liu,  Kuan-Yu Liu,  Xiao Liu,  
 M. Loipersberger,  A. Luenser,  C. Malbon,  Aniket Mandal,  Manisha,  
 A. Manjanath,  P. Manohar,  E. Mansoor,  S. F. Manzer,  Shan-Ping Mao,  
 A. V. Marenich,  T. Markovich,  S. Mason,  F. Matz,  S. A. Maurer,  
 Samuel May,  Alexandra McIsaac,  P. F. McLaughlin,  M. F. S. J. Menger,  
 J.-M. Mewes,  S. A. Mewes,  P. Morgante,  Mohammad Mostafanejad,  
 Madhubani Mukherjee,  J. W. Mullinax,  Quyen Nguyen,  Avik Kumar Ojha,  
 K. J. Oosterbaan,  Eno Paenurk,  Xiaoliang Pan,  G. Paran,  V. Parravicini,  
 Alexander C. Paul,  Suranjan K. Paul,  F. Pavosevic,  Zheng Pei,  S. Prager,  
 E. I. Proynov,  E. Ramos,  B. Rana,  A. E. Rask,  A. Rettig,  R. M. Richard,  
 F. Rob,  E. Rossomme,  T. Scheele,  M. Scheurer,  M. Schneider,  
 P. E. Schneider,  Tim K. Schramm,  N. Sergueev,  S. M. Sharada,  
 Hengyuan Shen,  W. Skomorowski,  D. W. Small,  C. J. Stein,  
 Alistair J. Sterling,  Yingli Su,  Yu-Chuan Su,  E. J. Sundstrom,  
 J. Talbot,  Zhen Tao,  J. Thirman,  Hung-Yi Tsai,  T. Tsuchimochi,  
 N. M. Tubman,  C. Utku,  S. P. Veccham,  O. Vydrov,  Rahel Weiss,  
 J. Wenzel,  Jonathan Wong,  J. Witte,  H. Wu,  Yanze Wu,  A. Yamada,  
 Chou-Hsun Yang,  Kun Yao,  S. Yeganeh,  S. R. Yost,  Qi Yu,  A. Zech,  
 F. Zeller,  Chongxiao Zhao,  Igor Ying Zhang,  Xing Zhang,  Yu Zhang,  
 D. Zuev,  A. Aspuru-Guzik,  A. T. Bell,  N. A. Besley,  K. B. Bravaya,  
 B. R. Brooks,  D. Casanova,  Jeng-Da Chai,  Hsing-Ta Chen,  S. Coriani,  
 C. J. Cramer,  A. E. DePrince, III,  R. A. DiStasio Jr.,  A. Dreuw,  
 B. D. Dunietz,  T. R. Furlani,  W. A. Goddard III,  S. Grimme,  
 S. Hammes-Schiffer,  T. Head-Gordon,  W. J. Hehre,  Chao-Ping Hsu,  
 T.-C. Jagau,  Yousung Jung,  A. Klamt,  Jing Kong,  D. S. Lambrecht,  
 Xiangyuan Li,  WanZhen Liang,  N. J. Mayhall,  C. W. McCurdy,  J. B. Neaton,  
 T. Neudecker,  C. Ochsenfeld,  J. A. Parkhill,  R. Peverati,  
 V. A. Rassolov,  Haisheng Ren,  Yihan Shao,  L. V. Slipchenko,  
 R. P. Steele,  J. E. Subotnik,  A. J. W. Thom,  A. Tkatchenko,  
 D. G. Truhlar,  T. Van Voorhis,  Fan Wang,  T. A. Wesolowski,  K. B. Whaley,  
 H. L. Woodcock III,  P. M. Zimmerman,  S. Faraji,  P. M. W. Gill,  
 M. Head-Gordon,  J. M. Herbert,  A. I. Krylov

 Contributors to earlier versions of Q-Chem not listed above: 
 R. D. Adamson,  B. Austin,  R. Baer,  J. Baker,  G. J. O. Beran,  
 K. Brandhorst,  S. T. Brown,  E. F. C. Byrd,  Arup K. Chakraborty,  
 G. K. L. Chan,  Chun-Min Chang,  Yunqing Chen,  C.-L. Cheng,  
 Siu Hung Chien,  D. M. Chipman,  D. L. Crittenden,  H. Dachsel,  
 R. J. Doerksen,  A. D. Dutoi,  R. G. Edgar,  J. Fosso-Tande,  
 L. Fusti-Molnar,  D. Ghosh,  A. Ghysels,  A. Golubeva-Zadorozhnaya,  
 J. Gonthier,  M. S. Gordon,  S. R. Gwaltney,  G. Hawkins,  J. E. Herr,  
 A. Heyden,  S. Hirata,  E. G. Hohenstein,  G. Kedziora,  F. J. Keil,  
 C. Kelley,  Jihan Kim,  R. A. King,  R. Z. Khaliullin,  P. P. Korambath,  
 W. Kurlancheek,  A. Laurent,  A. M. Lee,  M. S. Lee,  S. V. Levchenko,  
 Ching Yeh Lin,  D. Liotard,  E. Livshits,  R. C. Lochan,  I. Lotan,  
 L. A. Martinez-Martinez,  P. E. Maslen,  N. Nair,  D. P. O'Neill,  
 D. Neuhauser,  E. Neuscamman,  C. M. Oana,  R. Olivares-Amaya,  R. Olson,  
 T. M. Perrine,  B. Peters,  P. A. Pieniazek,  A. Prociuk,  Y. M. Rhee,  
 J. Ritchie,  M. A. Rohrdanz,  E. Rosta,  N. J. Russ,  H. F. Schaefer III,  
 M. W. Schmidt,  N. E. Schultz,  S. Sharma,  N. Shenvi,  C. D. Sherrill,  
 A. C. Simmonett,  A. Sodt,  T. Stein,  D. Stuck,  K. S. Thanthiriwatte,  
 V. Vanovschi,  L. Vogt,  Tao Wang,  A. Warshel,  M. A. Watson,  
 C. F. Williams,  Q. Wu,  X. Xu,  Jun Yang,  W. Zhang,  Yan Zhao

   Please cite Q-Chem as follows:
  "Software for the frontiers of quantum chemistry:
   An overview of developments in the Q-Chem 5 package"
   J. Chem. Phys. 155, 084801 (2021)
   https://doi.org/10.1063/5.0055522 (open access)

 Q-Chem 6.2.0 for Intel X86 EM64T Linux

 Parts of Q-Chem use Armadillo 9.900.5 (Nocturnal Misbehaviour).
 http://arma.sourceforge.net/

 Q-Chem begins on Sat Apr 26 03:44:51 2025  

 Host: 
0

     Scratch files written to /scratch/hlong/8618274/qchem617497//
 May224 |scratch|qcdevops|jenkins|workspace|build_RNUM -1
 Processing $rem in /nopt/nrel/apps/software/q-chem/6.2/config/preferences:
 Processing $rem in /home/hlong/.qchemrc:

 Checking the input file for inconsistencies... 	...done.

--------------------------------------------------------------
User input:
--------------------------------------------------------------
$molecule
-1 1
C          4.11643       -1.48041       -0.71113
F          3.39409       -2.59960       -0.81726
F          4.22860       -0.91587       -1.91896
C          3.42207       -0.51789        0.28967
O          2.19271       -0.17339       -0.26905
C          1.01327       -0.29967        0.45351
C         -0.13361        0.37168       -0.37411
F          0.01715       -0.04365       -1.67355
F          5.34489       -1.80262       -0.27209
C          4.22273        0.78391        0.56775
F          4.46092        1.43773       -0.57729
F          3.31939       -1.18796        1.47185
F          3.52926        1.58045        1.38565
F          5.39884        0.49440        1.14858
F          1.10896        0.29403        1.66422
F          0.73814       -1.59933        0.65313
O         -1.28286       -0.10001        0.20694
C         -2.58410        0.27338       -0.22864
C         -0.00545        1.92942       -0.40146
C         -3.56377       -0.78378        0.32897
F         -2.86180        1.50249        0.24397
F         -2.61581        0.32085       -1.56915
S         -5.40120       -0.42965        0.07649
F         -3.22844       -1.95967       -0.27102
F         -3.29595       -0.90240        1.65906
F         -0.81928        2.44862       -1.32551
F         -0.30038        2.45428        0.79272
F          1.25554        2.29549       -0.71642
O         -6.01000       -1.70152        0.51923
O         -5.62749        0.73480        0.95974
O         -5.46900       -0.15244       -1.37593
$end

$rem
job_type=opt
basis=aug-cc-pvtz
method=b3lyp
$end
--------------------------------------------------------------
 ----------------------------------------------------------------
             Standard Nuclear Orientation (Angstroms)
    I     Atom           X                Y                Z
 ----------------------------------------------------------------
    1      C       4.1164293037     1.4804112804     0.7111283217
    2      F       3.3940892428     2.5996013103     0.8172575923
    3      F       4.2285995215     0.9158721909     1.9189587271
    4      C       3.4220692212     0.5178904848    -0.2896708558
    5      O       2.1927093276     0.1733908182     0.2690495840
    6      C       1.0132692118     0.2996701973    -0.4535103354
    7      C      -0.1336106194    -0.3716792626     0.3741103366
    8      F       0.0171495449     0.0436517190     1.6735500037
    9      F       5.3448892165     1.8026210364     0.2720878986
   10      C       4.2227292691    -0.7839096682    -0.5677500015
   11      F       4.4609194837    -1.4377287960     0.5772904519
   12      F       3.3193889999     1.1879595941    -1.4718513415
   13      F       3.5292592023    -1.5804503271    -1.3856493033
   14      F       5.3988391631    -0.4944000218    -1.1485803924
   15      F       1.1089590729    -0.2940307011    -1.6642199058
   16      F       0.7381390932     1.5993300293    -0.6531312660
   17      O      -1.2828607379     0.1000102244    -0.2069398455
   18      C      -2.5841006477    -0.2733795392     0.2286406266
   19      C      -0.0054505087    -1.9294192334     0.4014614819
   20      C      -3.5637708029     0.7837799769    -0.3289700183
   21      F      -2.8618006337    -1.5024899114    -0.2439684135
   22      F      -2.6158104456    -0.3208485393     1.5691506668
   23      S      -5.4012007412     0.4296500398    -0.0764894810
   24      F      -3.2284407944     1.9596704484     0.2710190530
   25      F      -3.2959510083     0.9023990011    -1.6590601467
   26      F      -0.8192803361    -2.4486185984     1.3255119907
   27      F      -0.3003806499    -2.4542801462    -0.7927180820
   28      F       1.2555395631    -2.2954889116     0.7164215685
   29      O      -6.0100008940     1.7015196672    -0.5192303414
   30      O      -5.6274907924    -0.7348006359    -0.9597385771
   31      O      -5.4690005067     0.1524411208     1.3759307362
 ----------------------------------------------------------------
 Molecular Point Group                 C1    NOp =  1
 Largest Abelian Subgroup              C1    NOp =  1
 Nuclear Repulsion Energy =        4364.44217231 hartrees
 There are      129 alpha and      129 beta electrons
 Requested basis set is aug-cc-pVTZ
 There are 436 shells and 1430 basis functions

 Total QAlloc Memory Limit 224000 MB
 Mega-Array Size       188 MB
 MEM_STATIC part       192 MB

 -----------------------------------------------------------------------
                STARTING GEOMETRY OPTIMIZER USING LIBOPT3
                by Peter F. McLaughlin, Yu Zhang, Evgeny Epifanovsky
 -----------------------------------------------------------------------

              Initial Energy and Gradient Calculation
   -- Checking Topology for Ill-Behaving Coordinates --

 -------------------------------------------
   Coordinate       |  Removed | Additions 
 -------------------------------------------
	Bonds                     0          0
	Angles                    0          0
	Torsions                  0          0
	Co-Linear Type5s          0          0
	Co-Linear Type6s          0          0
 -------------------------------------------
     Done Checking Topology
 ----------------------------------------------------------------
             Standard Nuclear Orientation (Angstroms)
    I     Atom           X                Y                Z
 ----------------------------------------------------------------
    1      C       4.1164293037     1.4804112804     0.7111283217
    2      F       3.3940892428     2.5996013103     0.8172575923
    3      F       4.2285995215     0.9158721909     1.9189587271
    4      C       3.4220692212     0.5178904848    -0.2896708558
    5      O       2.1927093276     0.1733908182     0.2690495840
    6      C       1.0132692118     0.2996701973    -0.4535103354
    7      C      -0.1336106194    -0.3716792626     0.3741103366
    8      F       0.0171495449     0.0436517190     1.6735500037
    9      F       5.3448892165     1.8026210364     0.2720878986
   10      C       4.2227292691    -0.7839096682    -0.5677500015
   11      F       4.4609194837    -1.4377287960     0.5772904519
   12      F       3.3193889999     1.1879595941    -1.4718513415
   13      F       3.5292592023    -1.5804503271    -1.3856493033
   14      F       5.3988391631    -0.4944000218    -1.1485803924
   15      F       1.1089590729    -0.2940307011    -1.6642199058
   16      F       0.7381390932     1.5993300293    -0.6531312660
   17      O      -1.2828607379     0.1000102244    -0.2069398455
   18      C      -2.5841006477    -0.2733795392     0.2286406266
   19      C      -0.0054505087    -1.9294192334     0.4014614819
   20      C      -3.5637708029     0.7837799769    -0.3289700183
   21      F      -2.8618006337    -1.5024899114    -0.2439684135
   22      F      -2.6158104456    -0.3208485393     1.5691506668
   23      S      -5.4012007412     0.4296500398    -0.0764894810
   24      F      -3.2284407944     1.9596704484     0.2710190530
   25      F      -3.2959510083     0.9023990011    -1.6590601467
   26      F      -0.8192803361    -2.4486185984     1.3255119907
   27      F      -0.3003806499    -2.4542801462    -0.7927180820
   28      F       1.2555395631    -2.2954889116     0.7164215685
   29      O      -6.0100008940     1.7015196672    -0.5192303414
   30      O      -5.6274907924    -0.7348006359    -0.9597385771
   31      O      -5.4690005067     0.1524411208     1.3759307362
 ----------------------------------------------------------------
 Molecular Point Group                 C1    NOp =  1
 Largest Abelian Subgroup              C1    NOp =  1
 Nuclear Repulsion Energy =        4364.44217231 hartrees
 There are      129 alpha and      129 beta electrons
 Requested basis set is aug-cc-pVTZ
 There are 436 shells and 1430 basis functions
 A cutoff of  1.0D-12 yielded  65960 shell pairs
 There are    668080 function pairs (    932726 Cartesian)
 Smallest overlap matrix eigenvalue = 3.36E-06

 Scale SEOQF with 1.000000e-02/1.000000e-01/1.000000e-01

 Standard Electronic Orientation quadrupole field applied
 Nucleus-field energy     =     0.0000000181 hartrees
 Guess from superposition of atomic densities
 Warning:  Energy on first SCF cycle will be non-variational
 SAD guess density has 257.000000 electrons

 -----------------------------------------------------------------------
  General SCF calculation program by
  Eric Jon Sundstrom, Paul Horn, Yuezhi Mao, Dmitri Zuev, Alec White,
  David Stuck, Shaama M.S., Shane Yost, Joonho Lee, David Small,
  Daniel Levine, Susi Lehtola, Hugh Burton, Evgeny Epifanovsky,
  Bang C. Huynh
 -----------------------------------------------------------------------
 Exchange:     0.2000 Hartree-Fock + 0.0800 Slater + 0.7200 B88
 Correlation:  0.1900 VWN1RPA + 0.8100 LYP
 Using SG-1 standard quadrature grid
 using 104 threads for integral computing
 -------------------------------------------------------
 OpenMP Integral computing Module                
 Release: version 1.0, May 2013, Q-Chem Inc. Pittsburgh 
 -------------------------------------------------------
 A restricted SCF calculation will be
 performed using DIIS
 SCF converges when DIIS error is below 1.0e-08
 ---------------------------------------
  Cycle       Energy         DIIS error
 ---------------------------------------
    1   -2783.0604402589      1.16e-02  
    2   -2776.7252256348      2.18e-03  
    3   -2772.8030680990      4.51e-03  
    4   -2777.3329771220      8.74e-04  
    5   -2777.4888575270      1.98e-04  
    6   -2777.4959462761      1.42e-04  
    7   -2777.4991962306      4.28e-05  
    8   -2777.4994278210      2.46e-05  
    9   -2777.4995281108      6.32e-06  
   10   -2777.4995348268      1.84e-06  
   11   -2777.4995352787      6.66e-07  
   12   -2777.4995353461      1.88e-07  
   13   -2777.4995353511      5.70e-08  
   14   -2777.4995353519      2.66e-08  
   15   -2777.4995353373      9.62e-09  Convergence criterion met
 ---------------------------------------
 SCF time:   CPU 44959.80s  wall 1378.00s 
 SCF   energy = -2777.49953534
 Total energy = -2777.49953534
 
 --------------------------------------------------------------
 
                    Orbital Energies (a.u.)
 --------------------------------------------------------------
 
 Alpha MOs
 -- Occupied --
-88.9521 -24.6993 -24.6984 -24.6983 -24.6982 -24.6975 -24.6970 -24.6936
-24.6734 -24.6708 -24.6692 -24.6682 -24.6673 -24.6508 -24.6271 -24.6250
-24.5987 -24.5986 -19.1684 -19.1285 -18.9652 -18.9637 -18.9635 -10.4151
-10.4144 -10.3864 -10.3820 -10.3462 -10.3311 -10.3137 -10.2503  -7.9697
 -5.9350  -5.9328  -5.9328  -1.3042  -1.2968  -1.2719  -1.2554  -1.2319
 -1.2137  -1.2123  -1.2107  -1.2104  -1.2096  -1.1914  -1.1828  -1.1815
 -1.1811  -1.1608  -1.1396  -1.1038  -1.0762  -1.0328  -0.9668  -0.8356
 -0.8345  -0.8069  -0.7581  -0.7037  -0.6871  -0.6826  -0.6434  -0.6201
 -0.6032  -0.5990  -0.5908  -0.5851  -0.5758  -0.5707  -0.5657  -0.5593
 -0.5564  -0.5530  -0.5510  -0.5342  -0.5292  -0.5192  -0.4993  -0.4946
 -0.4768  -0.4706  -0.4582  -0.4543  -0.4499  -0.4487  -0.4479  -0.4423
 -0.4406  -0.4285  -0.4270  -0.4222  -0.4209  -0.4184  -0.4169  -0.4104
 -0.4066  -0.4048  -0.4003  -0.3971  -0.3964  -0.3935  -0.3914  -0.3897
 -0.3870  -0.3765  -0.3725  -0.3680  -0.3658  -0.3620  -0.3605  -0.3515
 -0.3465  -0.3397  -0.3306  -0.3249  -0.3100  -0.3082  -0.3068  -0.3033
 -0.3024  -0.2818  -0.2776  -0.1955  -0.1951  -0.1673  -0.1651  -0.1569
 -0.1208
 -- Virtual --
  0.0511   0.0611   0.0691   0.0750   0.0899   0.0951   0.0963   0.1006
  0.1066   0.1069   0.1105   0.1229   0.1276   0.1314   0.1324   0.1359
  0.1371   0.1385   0.1485   0.1499   0.1552   0.1621   0.1651   0.1675
  0.1702   0.1708   0.1752   0.1765   0.1776   0.1799   0.1832   0.1863
  0.1881   0.1907   0.1943   0.1964   0.2026   0.2042   0.2069   0.2108
  0.2141   0.2204   0.2235   0.2298   0.2320   0.2336   0.2351   0.2369
  0.2398   0.2404   0.2436   0.2457   0.2473   0.2496   0.2544   0.2561
  0.2576   0.2584   0.2641   0.2659   0.2671   0.2701   0.2715   0.2731
  0.2751   0.2766   0.2788   0.2806   0.2830   0.2836   0.2854   0.2897
  0.2924   0.2944   0.2971   0.2978   0.2998   0.3014   0.3042   0.3055
  0.3091   0.3110   0.3122   0.3157   0.3167   0.3207   0.3209   0.3227
  0.3287   0.3305   0.3308   0.3332   0.3370   0.3387   0.3405   0.3426
  0.3450   0.3471   0.3492   0.3513   0.3563   0.3579   0.3593   0.3616
  0.3652   0.3690   0.3729   0.3766   0.3777   0.3794   0.3849   0.3861
  0.3871   0.3905   0.3914   0.3979   0.4001   0.4027   0.4086   0.4101
  0.4136   0.4165   0.4231   0.4245   0.4284   0.4327   0.4355   0.4382
  0.4425   0.4470   0.4499   0.4528   0.4585   0.4633   0.4654   0.4702
  0.4708   0.4774   0.4797   0.4831   0.4873   0.4938   0.4965   0.4985
  0.5020   0.5091   0.5094   0.5125   0.5157   0.5167   0.5242   0.5286
  0.5299   0.5331   0.5366   0.5424   0.5446   0.5455   0.5487   0.5529
  0.5553   0.5570   0.5622   0.5665   0.5676   0.5691   0.5715   0.5781
  0.5818   0.5835   0.5889   0.5904   0.5928   0.5951   0.6016   0.6060
  0.6083   0.6136   0.6151   0.6168   0.6215   0.6240   0.6297   0.6339
  0.6371   0.6413   0.6436   0.6527   0.6556   0.6587   0.6623   0.6638
  0.6666   0.6706   0.6726   0.6890   0.6924   0.6946   0.7060   0.7105
  0.7139   0.7179   0.7235   0.7262   0.7324   0.7344   0.7427   0.7479
  0.7549   0.7678   0.7755   0.7793   0.7820   0.7850   0.7888   0.7907
  0.7937   0.7952   0.8006   0.8043   0.8052   0.8096   0.8126   0.8189
  0.8216   0.8271   0.8307   0.8355   0.8440   0.8447   0.8501   0.8518
  0.8595   0.8640   0.8699   0.8760   0.8807   0.8841   0.8912   0.8924
  0.8978   0.9005   0.9034   0.9071   0.9140   0.9221   0.9247   0.9293
  0.9318   0.9351   0.9370   0.9460   0.9519   0.9560   0.9585   0.9632
  0.9670   0.9717   0.9740   0.9798   0.9893   0.9940   0.9975   0.9991
  1.0033   1.0054   1.0079   1.0105   1.0115   1.0175   1.0231   1.0267
  1.0299   1.0312   1.0347   1.0369   1.0408   1.0464   1.0508   1.0564
  1.0623   1.0694   1.0715   1.0730   1.0763   1.0784   1.0808   1.0844
  1.0871   1.0891   1.0930   1.1002   1.1066   1.1101   1.1124   1.1141
  1.1172   1.1213   1.1272   1.1301   1.1332   1.1383   1.1454   1.1478
  1.1525   1.1567   1.1611   1.1629   1.1666   1.1702   1.1768   1.1800
  1.1843   1.1860   1.1900   1.1971   1.1996   1.2023   1.2071   1.2122
  1.2149   1.2217   1.2248   1.2254   1.2306   1.2321   1.2335   1.2367
  1.2387   1.2424   1.2477   1.2530   1.2568   1.2594   1.2632   1.2664
  1.2714   1.2743   1.2752   1.2848   1.2914   1.2924   1.2972   1.2999
  1.3026   1.3083   1.3101   1.3108   1.3126   1.3172   1.3229   1.3251
  1.3323   1.3365   1.3395   1.3413   1.3474   1.3527   1.3585   1.3621
  1.3651   1.3662   1.3724   1.3784   1.3855   1.3896   1.3935   1.3982
  1.4071   1.4099   1.4151   1.4185   1.4190   1.4241   1.4257   1.4299
  1.4331   1.4412   1.4472   1.4521   1.4532   1.4590   1.4614   1.4641
  1.4657   1.4746   1.4773   1.4856   1.4869   1.4929   1.4995   1.5009
  1.5054   1.5108   1.5114   1.5209   1.5261   1.5303   1.5315   1.5343
  1.5436   1.5454   1.5476   1.5535   1.5553   1.5612   1.5668   1.5743
  1.5822   1.5862   1.5908   1.5952   1.6022   1.6037   1.6044   1.6103
  1.6157   1.6248   1.6270   1.6313   1.6358   1.6386   1.6407   1.6478
  1.6544   1.6669   1.6697   1.6729   1.6800   1.6825   1.6874   1.6931
  1.7014   1.7020   1.7047   1.7102   1.7202   1.7260   1.7274   1.7349
  1.7366   1.7473   1.7586   1.7624   1.7668   1.7693   1.7765   1.7766
  1.7844   1.7871   1.7943   1.8018   1.8066   1.8139   1.8215   1.8235
  1.8298   1.8328   1.8449   1.8541   1.8598   1.8664   1.8713   1.8721
  1.8827   1.8872   1.8937   1.9031   1.9069   1.9114   1.9188   1.9222
  1.9305   1.9336   1.9425   1.9490   1.9603   1.9687   1.9812   1.9835
  1.9865   1.9925   2.0000   2.0053   2.0118   2.0211   2.0270   2.0322
  2.0389   2.0510   2.0543   2.0620   2.0659   2.0696   2.0750   2.0887
  2.0916   2.0956   2.1046   2.1106   2.1129   2.1256   2.1324   2.1361
  2.1485   2.1514   2.1554   2.1608   2.1692   2.1737   2.1848   2.1872
  2.1973   2.2031   2.2143   2.2164   2.2234   2.2265   2.2347   2.2377
  2.2503   2.2613   2.2826   2.2918   2.3009   2.3186   2.3225   2.3284
  2.3386   2.3400   2.3544   2.3588   2.3696   2.3820   2.3878   2.3983
  2.4053   2.4163   2.4221   2.4320   2.4433   2.4456   2.4497   2.4601
  2.4646   2.4698   2.4816   2.4870   2.4907   2.4971   2.5048   2.5124
  2.5178   2.5213   2.5302   2.5347   2.5391   2.5443   2.5458   2.5615
  2.5636   2.5706   2.5719   2.5812   2.5840   2.5849   2.5921   2.5959
  2.6095   2.6133   2.6144   2.6202   2.6269   2.6312   2.6336   2.6376
  2.6435   2.6454   2.6508   2.6536   2.6579   2.6619   2.6676   2.6683
  2.6760   2.6787   2.6833   2.6841   2.6881   2.6907   2.7004   2.7021
  2.7059   2.7135   2.7193   2.7223   2.7257   2.7292   2.7359   2.7419
  2.7454   2.7533   2.7585   2.7598   2.7632   2.7691   2.7740   2.7782
  2.7814   2.7872   2.7916   2.8006   2.8018   2.8062   2.8153   2.8161
  2.8213   2.8248   2.8288   2.8341   2.8353   2.8439   2.8493   2.8553
  2.8598   2.8675   2.8700   2.8725   2.8762   2.8785   2.8899   2.8915
  2.8990   2.9009   2.9057   2.9126   2.9179   2.9219   2.9246   2.9295
  2.9342   2.9422   2.9485   2.9506   2.9536   2.9593   2.9619   2.9640
  2.9728   2.9778   2.9809   2.9846   2.9940   3.0006   3.0102   3.0139
  3.0142   3.0169   3.0264   3.0309   3.0354   3.0395   3.0412   3.0443
  3.0541   3.0549   3.0613   3.0623   3.0667   3.0710   3.0753   3.0817
  3.0853   3.0929   3.0986   3.1009   3.1056   3.1125   3.1175   3.1198
  3.1275   3.1331   3.1350   3.1398   3.1424   3.1462   3.1576   3.1610
  3.1640   3.1703   3.1807   3.1867   3.1887   3.1964   3.1970   3.2022
  3.2090   3.2162   3.2196   3.2264   3.2313   3.2344   3.2434   3.2463
  3.2562   3.2616   3.2674   3.2715   3.2744   3.2767   3.2815   3.2867
  3.2936   3.2984   3.3015   3.3041   3.3114   3.3157   3.3200   3.3261
  3.3374   3.3382   3.3402   3.3439   3.3536   3.3541   3.3632   3.3659
  3.3724   3.3815   3.3856   3.3902   3.3941   3.4002   3.4073   3.4141
  3.4169   3.4214   3.4266   3.4286   3.4347   3.4365   3.4409   3.4541
  3.4568   3.4655   3.4722   3.4731   3.4748   3.4778   3.4830   3.4942
  3.4977   3.5049   3.5082   3.5118   3.5159   3.5170   3.5293   3.5325
  3.5346   3.5430   3.5484   3.5494   3.5522   3.5582   3.5614   3.5708
  3.5747   3.5813   3.5898   3.5976   3.6033   3.6090   3.6161   3.6195
  3.6219   3.6289   3.6327   3.6373   3.6424   3.6433   3.6537   3.6554
  3.6611   3.6680   3.6728   3.6777   3.6859   3.6903   3.7005   3.7021
  3.7167   3.7196   3.7270   3.7315   3.7318   3.7447   3.7473   3.7576
  3.7618   3.7637   3.7825   3.7909   3.7926   3.7949   3.8131   3.8135
  3.8276   3.8311   3.8394   3.8478   3.8507   3.8647   3.8651   3.8676
  3.8744   3.8838   3.8932   3.9000   3.9141   3.9174   3.9195   3.9348
  3.9405   3.9494   3.9543   3.9637   3.9719   3.9769   3.9802   3.9929
  3.9954   4.0023   4.0084   4.0158   4.0201   4.0259   4.0333   4.0433
  4.0482   4.0570   4.0598   4.0673   4.0721   4.0836   4.0881   4.0933
  4.1000   4.1086   4.1164   4.1220   4.1270   4.1382   4.1458   4.1617
  4.1670   4.1717   4.1900   4.2017   4.2105   4.2147   4.2217   4.2307
  4.2361   4.2478   4.2494   4.2558   4.2671   4.2735   4.2898   4.3018
  4.3052   4.3162   4.3222   4.3436   4.3602   4.3733   4.3805   4.3847
  4.3950   4.3988   4.4047   4.4135   4.4378   4.4395   4.4662   4.4777
  4.4826   4.4922   4.5067   4.5198   4.5393   4.5452   4.5537   4.5559
  4.5642   4.5763   4.5853   4.5963   4.6266   4.6289   4.6343   4.6451
  4.6522   4.6568   4.6677   4.6833   4.6900   4.7022   4.7142   4.7168
  4.7252   4.7285   4.7310   4.7392   4.7532   4.7647   4.7883   4.8014
  4.8127   4.8176   4.8291   4.8354   4.8467   4.8600   4.8692   4.8963
  4.9052   4.9214   4.9355   4.9449   4.9699   4.9889   5.0016   5.0210
  5.0399   5.0534   5.0884   5.1003   5.1373   5.1738   5.2115   5.2494
  5.2623   5.2637   5.2996   5.3213   5.3243   5.3356   5.3557   5.3762
  5.3837   5.3930   5.4089   5.4294   5.4361   5.4451   5.4564   5.4606
  5.4766   5.4850   5.5008   5.5109   5.5235   5.5274   5.5509   5.5607
  5.5729   5.5803   5.6001   5.6062   5.6199   5.6371   5.6638   5.6713
  5.6916   5.7342   5.7593   5.7831   5.7950   5.8304   5.8454   5.8994
  5.9348   6.0491   6.0823   6.2857   6.3510   6.3670   6.3721   6.3863
  6.4007   6.4260   6.4362   6.4702   6.5179   6.5237   6.5259   6.5573
  6.5633   6.5845   6.6034   6.6191   6.6194   6.6269   6.6348   6.6425
  6.6467   6.6541   6.6565   6.6606   6.6724   6.7039   6.7260   6.7448
  6.7565   6.7627   6.7882   6.8095   6.8138   6.8270   6.8454   6.8548
  6.8609   6.8650   6.8735   6.8873   6.8930   6.8986   6.9258   6.9330
  6.9370   6.9462   6.9515   6.9616   6.9862   7.0046   7.0274   7.0663
  7.0836   7.0902   7.0992   7.1283   7.1634   7.1936   7.2098   7.2351
  7.2413   7.2525   7.2607   7.2621   7.2900   7.3152   7.3293   7.3677
  7.4318   7.4417   7.4455   7.4608   7.5993   7.6573   7.8522   7.9168
  7.9475   8.0606   8.4019   8.4280   8.4333   8.4414   8.4519   8.4597
  8.4725   8.4761   8.4865   8.4904   8.4946   8.5021   8.5074   8.5116
  8.5186   8.5250   8.5280   8.5350   8.5443   8.5545   8.5621   8.5728
  8.5800   8.5820   8.5943   8.6026   8.6070   8.6183   8.6192   8.6339
  8.6349   8.6478   8.6584   8.6718   8.6890   8.7052   8.7098   8.7217
  8.7266   8.7395   8.7454   8.7536   8.7710   8.7746   8.7794   8.7872
  8.7943   8.7993   8.8081   8.8114   8.8130   8.8160   8.8244   8.8295
  8.8362   8.8392   8.8481   8.8510   8.8548   8.8553   8.8666   8.8742
  8.8776   8.8798   8.8805   8.8840   8.8869   8.8881   8.8942   8.9006
  8.9014   8.9092   8.9112   8.9164   8.9208   8.9285   8.9311   8.9337
  8.9392   8.9460   8.9506   8.9548   8.9568   8.9622   8.9638   8.9661
  8.9687   8.9718   8.9755   8.9777   8.9781   8.9862   8.9921   8.9947
  8.9986   9.0004   9.0018   9.0065   9.0112   9.0152   9.0200   9.0207
  9.0274   9.0292   9.0327   9.0383   9.0389   9.0453   9.0510   9.0559
  9.0624   9.0634   9.0670   9.0692   9.0767   9.0787   9.0849   9.0857
  9.0906   9.0952   9.0979   9.1031   9.1038   9.1093   9.1124   9.1140
  9.1192   9.1270   9.1294   9.1363   9.1399   9.1430   9.1479   9.1494
  9.1528   9.1596   9.1607   9.1657   9.1698   9.1705   9.1734   9.1751
  9.1793   9.1835   9.1911   9.1961   9.1980   9.2036   9.2068   9.2109
  9.2176   9.2215   9.2256   9.2320   9.2364   9.2406   9.2459   9.2514
  9.2567   9.2609   9.2696   9.2757   9.2841   9.2888   9.2961   9.3049
  9.3089   9.3143   9.3236   9.3330   9.3523   9.3601   9.3723   9.3822
  9.3966   9.4032   9.4072   9.4279   9.4380   9.4403   9.4508   9.4564
  9.4680   9.4800   9.4924   9.5025   9.5044   9.5164   9.5229   9.5239
  9.5430   9.5544   9.5831   9.6020   9.6202   9.6369   9.6373   9.6490
  9.6638   9.6675   9.6960   9.7085   9.7166   9.7365  12.0363  12.1279
 12.4231  13.6799  15.1498  15.2674  15.3136  15.4023  15.4492  15.5627
 15.6745  15.7553  15.8330  15.9087  15.9544  16.0019  16.0883  16.2382
 16.3510  16.5145  16.6549  16.7659  16.8819  17.3091  17.6660  17.8089
 17.8747  18.3920  18.9218  19.0381  19.2816
 --------------------------------------------------------------
 
          Ground-State Mulliken Net Atomic Charges

     Atom                 Charge (a.u.)
  ----------------------------------------
      1 C                     0.920454
      2 F                    -0.393990
      3 F                    -0.405040
      4 C                     1.262472
      5 O                    -0.473078
      6 C                     1.350422
      7 C                     1.048774
      8 F                    -0.587706
      9 F                    -0.397556
     10 C                     0.955208
     11 F                    -0.418101
     12 F                    -0.561838
     13 F                    -0.401844
     14 F                    -0.401394
     15 F                    -0.532536
     16 F                    -0.456517
     17 O                    -0.433144
     18 C                     1.258593
     19 C                     0.990114
     20 C                     0.707076
     21 F                    -0.477273
     22 F                    -0.459566
     23 S                     1.992435
     24 F                    -0.498132
     25 F                    -0.483320
     26 F                    -0.415384
     27 F                    -0.429734
     28 F                    -0.421634
     29 O                    -0.940607
     30 O                    -0.942836
     31 O                    -0.954317
  ----------------------------------------
  Sum of atomic charges =    -1.000000

 -----------------------------------------------------------------
                    Cartesian Multipole Moments
 -----------------------------------------------------------------
    Charge (ESU x 10^10)
                -4.8032
    Dipole Moment (Debye)
         X      22.2678      Y      -1.8068      Z       0.2576
       Tot      22.3424
    Quadrupole Moments (Debye-Ang)
        XX    -315.5210     XY      10.9335     YY    -187.1009
        XZ      -2.2200     YZ       0.5409     ZZ    -186.2165
    Octopole Moments (Debye-Ang^2)
       XXX     820.6039    XXY     -71.6130    XYY      74.6292
       YYY     -20.6592    XXZ      19.1630    XYZ       0.3026
       YYZ       5.1073    XZZ      68.3595    YZZ      -2.3536
       ZZZ      -3.2276
    Hexadecapole Moments (Debye-Ang^3)
      XXXX  -18309.2338   XXXY     429.4273   XXYY   -2882.2800
      XYYY     101.0303   YYYY   -1904.5749   XXXZ    -111.9554
      XXYZ      10.8968   XYYZ     -30.6464   YYYZ       7.0220
      XXZZ   -2695.4325   XYZZ      17.7191   YYZZ    -490.6174
      XZZZ       7.6599   YZZZ       1.4426   ZZZZ   -1056.5846
 -----------------------------------------------------------------
 Calculating analytic gradient of the SCF energy
 Gradient of SCF Energy
            1           2           3           4           5           6
    1  -0.0027552  -0.0028800  -0.0000065   0.0054283  -0.0002267  -0.0025710
    2  -0.0025016   0.0027995  -0.0034698  -0.0020165  -0.0017559  -0.0013848
    3  -0.0032922  -0.0006436   0.0022405   0.0039863   0.0043818   0.0030400
            7           8           9          10          11          12
    1   0.0037367   0.0001464   0.0031829  -0.0038096  -0.0000586  -0.0006254
    2  -0.0039612  -0.0002179  -0.0008256   0.0037692   0.0002270   0.0017204
    3  -0.0022063   0.0022475  -0.0025478   0.0007667   0.0040431  -0.0030651
           13          14          15          16          17          18
    1  -0.0038930   0.0027592   0.0014265   0.0000543  -0.0009148  -0.0018916
    2  -0.0018148   0.0028496  -0.0033215   0.0033517   0.0021485   0.0058977
    3  -0.0024481  -0.0008163  -0.0028497  -0.0000048  -0.0038477  -0.0028528
           19          20          21          22          23          24
    1   0.0003268  -0.0053025   0.0000418   0.0009798   0.0119322   0.0010761
    2   0.0060459  -0.0044969  -0.0044788  -0.0002287   0.0029432   0.0014290
    3   0.0000729   0.0030039  -0.0017685   0.0040422  -0.0020245   0.0020370
           25          26          27          28          29          30
    1   0.0011285  -0.0039761  -0.0014162   0.0038708  -0.0055191  -0.0009412
    2  -0.0013303  -0.0001608   0.0004126   0.0003312   0.0126679  -0.0117681
    3  -0.0022125   0.0031809  -0.0042082   0.0003361  -0.0042373  -0.0087592
           31
    1   0.0006971
    2  -0.0028603
    3   0.0144057
 Max gradient component =       1.441E-02
 RMS gradient           =       3.894E-03
 Gradient time:  CPU 15189.56 s  wall 483.88 s

 *****************************************************
             Starting BFGS Algorithm
 *****************************************************
            LIBOPT3 RUN PARAMETERS

  Geometry Optimization Coordinates :
	Delocalized Natural Internal Coordinates

  Step Length Selection Method :
	Eigenvector Following Algorithm

  Step Length Limiter :
	Root-Mean-Square of Gradient

  Convergence Criteria :
	Max Gradient Component    	3.00000000e-04
	Max Displacement Component	1.20000000e-03
	Absolute Energy Difference	1.00000000e-06

  Initial Hessian :
	Approximate Hessian - Model Internal Coordinate

  Type of Verification :
	Verify with final updated Hessian
 *****************************************************

	OPTIMIZATION CYCLE:	1

 Scaling Magnitude of Eigenvalues
 	Minimum: -25.00000000	 Maximum: 25.00000000
 87 Hessian Eigenvalues to form next step
   0.00200000   0.00200000   0.00200000   0.00211425   0.00223721
   0.00317285   0.01272165   0.01648945   0.01711013   0.01942148
   0.04876930   0.05306750   0.05317953   0.06832530   0.06865155
   0.06919403   0.08020792   0.08081828   0.08203465   0.08393167
   0.08503962   0.08530526   0.08574908   0.08582890   0.08641446
   0.08778195   0.10035629   0.10087761   0.10835752   0.10943995
   0.13710245   0.17003456   0.17092693   0.18126670   0.18560913
   0.19557377   0.20240245   0.20979246   0.21063918   0.21223129
   0.21448870   0.25000000   0.25000000   0.25000000   0.25000000
   0.25000000   0.25000000   0.25000000   0.25000000   0.25000000
   0.25000000   0.25000000   0.25000000   0.25000000   0.25000000
   0.25000000   0.25000000   0.25000000   0.26368973   0.26555313
   0.27363668   0.27441738   0.28045652   0.42145292   0.46694556
   0.47505926   0.50498104   0.50698198   0.52395599   0.52537408
   0.52553115   0.54633032   0.54958166   0.55923795   0.56370733
   0.56454930   0.56475138   0.56820149   0.57227407   0.57664219
   0.57801009   0.58037149   0.58048382   0.58158656   0.83629422
   0.84094088   0.84471702

 Minimum Search taking a RFO step
 Searching for Lambda that minimizes along all modes
	Value of Lambda   -0.00480590
	Norm  of Stepsize  0.20437783
	RMS   of Stepsize  0.02191160

	Performing Iterative Coordinate Back-Transformation

	  Starting from Previous Position

	  iter:	0	rms: 1.5478663059e-01	maxdev: 4.0928221326e-01
	  iter:	1	rms: 8.6620745186e-03	maxdev: 2.3390215485e-02
	  iter:	2	rms: 1.8544990813e-05	maxdev: 5.9021751339e-05
	  iter:	3	rms: 1.2824178945e-10	maxdev: 7.6224868935e-10	 Success!

	Finished Iterative Coordinate Back-Transformation
 ----------------------------------------------------------------
             Standard Nuclear Orientation (Angstroms)
    I     Atom           X                Y                Z
 ----------------------------------------------------------------
    1      C       4.0386212309     1.5018066142     0.7408300814
    2      F       3.2459239004     2.5624013206     0.8927907427
    3      F       4.1779687627     0.9066771303     1.9274486593
    4      C       3.4119874095     0.5369496116    -0.3192562359
    5      O       2.1998109594     0.1044974784     0.2195594170
    6      C       0.9888993268     0.2053972979    -0.4554951083
    7      C      -0.1305870157    -0.4848272203     0.4132725630
    8      F       0.0475183641    -0.0391484975     1.6968244660
    9      F       5.2421984409     1.9376838122     0.3430226327
   10      C       4.3053674115    -0.7037321977    -0.6622843016
   11      F       4.5733577385    -1.4224258375     0.4326186977
   12      F       3.2768502050     1.2580389580    -1.4634488969
   13      F       3.6842565313    -1.4904959226    -1.5389214174
   14      F       5.4679221191    -0.3217521654    -1.2086669463
   15      F       1.0408463424    -0.3608792152    -1.6775553039
   16      F       0.6767960479     1.4971420307    -0.6303737281
   17      O      -1.2878542922    -0.0136367166    -0.1524958682
   18      C      -2.6126883402    -0.2994857010     0.2819260032
   19      C       0.0234192304    -2.0526437603     0.4699110461
   20      C      -3.5230786702     0.7943370520    -0.3444479640
   21      F      -2.9599892220    -1.5241678640    -0.1409926886
   22      F      -2.6743854090    -0.2832528817     1.6184143993
   23      S      -5.4013048614     0.5708751660    -0.1246651613
   24      F      -3.1333270950     1.9745282174     0.2068196865
   25      F      -3.2260465513     0.8508144730    -1.6701037118
   26      F      -0.7531358880    -2.5729350121     1.4189729860
   27      F      -0.2786344009    -2.6216683279    -0.6980024180
   28      F       1.2902778140    -2.3957872039     0.7721418232
   29      O      -5.9111825773     1.8491130436    -0.6384118905
   30      O      -5.6965518800    -0.6051715010    -0.9553287797
   31      O      -5.5394273131     0.3700926660     1.3259879489
 ----------------------------------------------------------------
 Molecular Point Group                 C1    NOp =  1
 Largest Abelian Subgroup              C1    NOp =  1
 Nuclear Repulsion Energy =        4338.48616890 hartrees
 There are      129 alpha and      129 beta electrons
 Applying Cartesian multipole field
    Component          Value
    ---------          -----
     (2,0,0)        1.00000E-12
     (0,2,0)        2.00000E-11
     (0,0,2)       -3.00000E-11
 Nucleus-field energy     = 1.8627125173e-08 hartrees
 Requested basis set is aug-cc-pVTZ
 There are 436 shells and 1430 basis functions
 A cutoff of  1.0D-12 yielded  65620 shell pairs
 There are    663330 function pairs (    925617 Cartesian)
 Smallest overlap matrix eigenvalue = 3.47E-06
 Guess MOs from SCF MO coefficient file

 -----------------------------------------------------------------------
  General SCF calculation program by
  Eric Jon Sundstrom, Paul Horn, Yuezhi Mao, Dmitri Zuev, Alec White,
  David Stuck, Shaama M.S., Shane Yost, Joonho Lee, David Small,
  Daniel Levine, Susi Lehtola, Hugh Burton, Evgeny Epifanovsky,
  Bang C. Huynh
 -----------------------------------------------------------------------
 Exchange:     0.2000 Hartree-Fock + 0.0800 Slater + 0.7200 B88
 Correlation:  0.1900 VWN1RPA + 0.8100 LYP
 Using SG-1 standard quadrature grid
 A restricted SCF calculation will be
 performed using DIIS
 SCF converges when DIIS error is below 1.0e-08
 ---------------------------------------
  Cycle       Energy         DIIS error
 ---------------------------------------
    1   -2777.4419713672      6.09e-04  
    2   -2777.5000733952      7.00e-05  
    3   -2777.4995884107      9.91e-05  
    4   -2777.5010121245      1.02e-05  
    5   -2777.5010231237      5.39e-06  
    6   -2777.5010271314      2.50e-06  
    7   -2777.5010281797      6.14e-07  
    8   -2777.5010282439      1.59e-07  
    9   -2777.5010282483      5.39e-08  
   10   -2777.5010282507      1.32e-08  
   11   -2777.5010282603      5.94e-09  Convergence criterion met
 ---------------------------------------
 SCF time:   CPU 31868.83s  wall 962.00s 
 SCF   energy = -2777.50102826
 Total energy = -2777.50102826
 
 --------------------------------------------------------------
 
                    Orbital Energies (a.u.)
 --------------------------------------------------------------
 
 Alpha MOs
 -- Occupied --
-88.9494 -24.6988 -24.6987 -24.6983 -24.6976 -24.6974 -24.6953 -24.6949
-24.6739 -24.6717 -24.6710 -24.6702 -24.6673 -24.6528 -24.6296 -24.6275
-24.5980 -24.5979 -19.1683 -19.1279 -18.9630 -18.9622 -18.9618 -10.4154
-10.4139 -10.3885 -10.3822 -10.3494 -10.3329 -10.3170 -10.2496  -7.9675
 -5.9327  -5.9306  -5.9305  -1.3060  -1.2994  -1.2763  -1.2565  -1.2341
 -1.2137  -1.2129  -1.2128  -1.2105  -1.2099  -1.1939  -1.1845  -1.1838
 -1.1821  -1.1616  -1.1424  -1.1032  -1.0745  -1.0315  -0.9707  -0.8375
 -0.8368  -0.8041  -0.7566  -0.7026  -0.6862  -0.6826  -0.6436  -0.6206
 -0.6034  -0.5992  -0.5907  -0.5854  -0.5766  -0.5711  -0.5664  -0.5605
 -0.5578  -0.5544  -0.5530  -0.5355  -0.5309  -0.5205  -0.5014  -0.4951
 -0.4759  -0.4707  -0.4582  -0.4550  -0.4497  -0.4492  -0.4486  -0.4432
 -0.4406  -0.4299  -0.4280  -0.4216  -0.4209  -0.4190  -0.4180  -0.4122
 -0.4071  -0.4051  -0.4003  -0.3961  -0.3952  -0.3930  -0.3912  -0.3899
 -0.3869  -0.3767  -0.3727  -0.3702  -0.3670  -0.3636  -0.3629  -0.3530
 -0.3476  -0.3391  -0.3309  -0.3252  -0.3094  -0.3079  -0.3063  -0.3034
 -0.3024  -0.2817  -0.2778  -0.1965  -0.1962  -0.1671  -0.1653  -0.1568
 -0.1198
 -- Virtual --
  0.0513   0.0610   0.0692   0.0740   0.0877   0.0950   0.0956   0.1008
  0.1063   0.1067   0.1103   0.1212   0.1264   0.1306   0.1320   0.1351
  0.1369   0.1384   0.1481   0.1489   0.1548   0.1613   0.1642   0.1674
  0.1691   0.1704   0.1748   0.1760   0.1762   0.1797   0.1830   0.1860
  0.1875   0.1901   0.1943   0.1968   0.2015   0.2028   0.2074   0.2101
  0.2112   0.2206   0.2238   0.2305   0.2326   0.2337   0.2354   0.2377
  0.2413   0.2422   0.2446   0.2455   0.2483   0.2497   0.2528   0.2555
  0.2558   0.2575   0.2638   0.2646   0.2661   0.2689   0.2699   0.2727
  0.2748   0.2762   0.2784   0.2801   0.2821   0.2826   0.2850   0.2889
  0.2905   0.2939   0.2949   0.2964   0.2990   0.3011   0.3042   0.3049
  0.3087   0.3103   0.3109   0.3144   0.3158   0.3179   0.3206   0.3230
  0.3270   0.3288   0.3300   0.3310   0.3353   0.3372   0.3393   0.3408
  0.3424   0.3471   0.3485   0.3506   0.3544   0.3560   0.3575   0.3603
  0.3652   0.3658   0.3687   0.3749   0.3758   0.3793   0.3832   0.3842
  0.3874   0.3888   0.3901   0.3945   0.3970   0.4020   0.4039   0.4093
  0.4124   0.4146   0.4189   0.4223   0.4259   0.4323   0.4330   0.4369
  0.4400   0.4441   0.4472   0.4520   0.4535   0.4587   0.4647   0.4682
  0.4684   0.4749   0.4761   0.4812   0.4860   0.4919   0.4949   0.4961
  0.5001   0.5018   0.5045   0.5099   0.5103   0.5150   0.5185   0.5264
  0.5276   0.5317   0.5359   0.5397   0.5428   0.5461   0.5494   0.5511
  0.5546   0.5572   0.5593   0.5626   0.5654   0.5689   0.5704   0.5772
  0.5810   0.5814   0.5867   0.5873   0.5903   0.5952   0.6016   0.6036
  0.6062   0.6101   0.6134   0.6189   0.6201   0.6216   0.6277   0.6325
  0.6342   0.6389   0.6439   0.6507   0.6542   0.6570   0.6615   0.6635
  0.6658   0.6689   0.6699   0.6842   0.6897   0.6905   0.7059   0.7111
  0.7130   0.7149   0.7223   0.7238   0.7333   0.7356   0.7462   0.7511
  0.7549   0.7684   0.7741   0.7808   0.7825   0.7852   0.7877   0.7910
  0.7933   0.7952   0.8001   0.8044   0.8070   0.8076   0.8120   0.8162
  0.8203   0.8244   0.8289   0.8365   0.8408   0.8478   0.8490   0.8542
  0.8577   0.8600   0.8691   0.8756   0.8814   0.8839   0.8904   0.8916
  0.8958   0.9023   0.9043   0.9053   0.9127   0.9182   0.9210   0.9250
  0.9307   0.9337   0.9355   0.9408   0.9491   0.9538   0.9565   0.9586
  0.9635   0.9686   0.9747   0.9799   0.9858   0.9922   0.9955   0.9965
  1.0003   1.0020   1.0034   1.0094   1.0107   1.0153   1.0196   1.0243
  1.0253   1.0275   1.0340   1.0389   1.0406   1.0438   1.0480   1.0542
  1.0563   1.0606   1.0662   1.0674   1.0684   1.0781   1.0802   1.0809
  1.0828   1.0867   1.0889   1.0954   1.1035   1.1065   1.1076   1.1082
  1.1143   1.1169   1.1224   1.1250   1.1298   1.1356   1.1399   1.1440
  1.1492   1.1503   1.1524   1.1571   1.1605   1.1645   1.1685   1.1701
  1.1770   1.1813   1.1826   1.1895   1.1931   1.1959   1.2020   1.2057
  1.2110   1.2132   1.2152   1.2181   1.2196   1.2232   1.2307   1.2335
  1.2351   1.2365   1.2425   1.2474   1.2511   1.2562   1.2582   1.2642
  1.2646   1.2666   1.2721   1.2796   1.2866   1.2900   1.2918   1.2944
  1.2975   1.3009   1.3050   1.3055   1.3088   1.3154   1.3181   1.3242
  1.3267   1.3327   1.3378   1.3387   1.3418   1.3451   1.3508   1.3533
  1.3597   1.3604   1.3686   1.3705   1.3786   1.3826   1.3851   1.3897
  1.3988   1.4060   1.4132   1.4138   1.4172   1.4227   1.4232   1.4280
  1.4314   1.4388   1.4408   1.4431   1.4468   1.4526   1.4563   1.4576
  1.4638   1.4701   1.4772   1.4830   1.4878   1.4890   1.4939   1.4954
  1.5024   1.5031   1.5111   1.5161   1.5232   1.5259   1.5289   1.5302
  1.5409   1.5429   1.5465   1.5477   1.5537   1.5584   1.5614   1.5688
  1.5776   1.5889   1.5914   1.5936   1.5963   1.5988   1.6041   1.6073
  1.6099   1.6183   1.6204   1.6245   1.6313   1.6323   1.6433   1.6454
  1.6493   1.6618   1.6652   1.6679   1.6768   1.6776   1.6829   1.6849
  1.6918   1.6954   1.6980   1.7089   1.7109   1.7132   1.7231   1.7285
  1.7351   1.7389   1.7475   1.7503   1.7537   1.7633   1.7695   1.7762
  1.7792   1.7837   1.7874   1.7945   1.7991   1.8003   1.8134   1.8165
  1.8215   1.8297   1.8323   1.8411   1.8490   1.8548   1.8600   1.8635
  1.8714   1.8812   1.8863   1.8918   1.8992   1.9079   1.9105   1.9194
  1.9223   1.9290   1.9335   1.9443   1.9540   1.9604   1.9713   1.9764
  1.9840   1.9852   1.9924   1.9971   2.0142   2.0196   2.0223   2.0260
  2.0332   2.0382   2.0477   2.0543   2.0599   2.0653   2.0702   2.0776
  2.0814   2.0883   2.0977   2.1044   2.1090   2.1180   2.1246   2.1301
  2.1325   2.1432   2.1484   2.1552   2.1560   2.1664   2.1696   2.1770
  2.1891   2.1945   2.2106   2.2178   2.2190   2.2210   2.2301   2.2308
  2.2454   2.2561   2.2705   2.2874   2.2908   2.3082   2.3173   2.3210
  2.3328   2.3372   2.3506   2.3535   2.3665   2.3760   2.3795   2.3938
  2.4002   2.4122   2.4207   2.4292   2.4355   2.4421   2.4449   2.4584
  2.4653   2.4759   2.4805   2.4836   2.4848   2.4942   2.4954   2.5077
  2.5174   2.5223   2.5272   2.5293   2.5371   2.5394   2.5476   2.5565
  2.5609   2.5685   2.5694   2.5728   2.5789   2.5816   2.5889   2.5909
  2.6005   2.6087   2.6112   2.6147   2.6239   2.6260   2.6316   2.6325
  2.6385   2.6418   2.6448   2.6475   2.6516   2.6587   2.6616   2.6625
  2.6706   2.6755   2.6783   2.6789   2.6827   2.6853   2.6910   2.6965
  2.6979   2.7072   2.7114   2.7175   2.7206   2.7234   2.7312   2.7382
  2.7426   2.7447   2.7470   2.7524   2.7575   2.7630   2.7670   2.7708
  2.7724   2.7779   2.7807   2.7907   2.8003   2.8042   2.8061   2.8145
  2.8186   2.8209   2.8278   2.8324   2.8334   2.8425   2.8445   2.8482
  2.8545   2.8574   2.8630   2.8652   2.8690   2.8732   2.8833   2.8886
  2.8926   2.8993   2.9032   2.9052   2.9072   2.9148   2.9237   2.9284
  2.9311   2.9351   2.9372   2.9412   2.9511   2.9536   2.9559   2.9649
  2.9680   2.9699   2.9784   2.9809   2.9914   2.9937   3.0031   3.0045
  3.0089   3.0173   3.0204   3.0222   3.0294   3.0341   3.0371   3.0403
  3.0477   3.0509   3.0536   3.0560   3.0580   3.0678   3.0689   3.0765
  3.0791   3.0858   3.0876   3.0921   3.0995   3.1002   3.1017   3.1127
  3.1180   3.1233   3.1269   3.1376   3.1388   3.1400   3.1480   3.1507
  3.1543   3.1625   3.1725   3.1784   3.1802   3.1860   3.1954   3.1980
  3.2012   3.2017   3.2068   3.2151   3.2195   3.2235   3.2351   3.2395
  3.2408   3.2540   3.2580   3.2607   3.2661   3.2697   3.2726   3.2774
  3.2807   3.2876   3.2891   3.2931   3.3016   3.3072   3.3119   3.3139
  3.3222   3.3276   3.3309   3.3348   3.3388   3.3464   3.3562   3.3592
  3.3655   3.3671   3.3775   3.3783   3.3854   3.3880   3.3933   3.4018
  3.4071   3.4123   3.4187   3.4205   3.4275   3.4287   3.4363   3.4444
  3.4460   3.4503   3.4584   3.4603   3.4652   3.4730   3.4819   3.4844
  3.4858   3.4929   3.4975   3.4990   3.5014   3.5118   3.5206   3.5244
  3.5292   3.5330   3.5395   3.5410   3.5454   3.5492   3.5570   3.5620
  3.5692   3.5732   3.5818   3.5853   3.5906   3.6050   3.6082   3.6145
  3.6177   3.6238   3.6282   3.6314   3.6343   3.6386   3.6468   3.6544
  3.6597   3.6621   3.6677   3.6737   3.6780   3.6869   3.6930   3.6986
  3.7079   3.7092   3.7172   3.7265   3.7298   3.7401   3.7420   3.7478
  3.7520   3.7574   3.7749   3.7793   3.7842   3.7915   3.7977   3.8024
  3.8094   3.8150   3.8258   3.8391   3.8436   3.8491   3.8592   3.8658
  3.8691   3.8764   3.8804   3.8878   3.8930   3.8975   3.9085   3.9183
  3.9297   3.9352   3.9466   3.9553   3.9571   3.9630   3.9734   3.9825
  3.9833   3.9892   3.9943   4.0078   4.0138   4.0203   4.0248   4.0331
  4.0364   4.0470   4.0583   4.0640   4.0673   4.0693   4.0745   4.0799
  4.0862   4.0993   4.1096   4.1157   4.1259   4.1313   4.1361   4.1595
  4.1616   4.1681   4.1752   4.1923   4.1966   4.2059   4.2115   4.2169
  4.2229   4.2363   4.2433   4.2489   4.2576   4.2610   4.2810   4.2907
  4.2928   4.3071   4.3156   4.3317   4.3512   4.3656   4.3754   4.3800
  4.3865   4.3920   4.3970   4.4039   4.4208   4.4334   4.4593   4.4627
  4.4746   4.4852   4.4941   4.5047   4.5213   4.5332   4.5411   4.5477
  4.5537   4.5632   4.5792   4.5866   4.6059   4.6104   4.6212   4.6311
  4.6355   4.6540   4.6587   4.6769   4.6847   4.6892   4.6992   4.7093
  4.7138   4.7157   4.7245   4.7323   4.7391   4.7511   4.7780   4.7960
  4.8078   4.8157   4.8185   4.8262   4.8408   4.8446   4.8616   4.8881
  4.9049   4.9116   4.9310   4.9502   4.9633   4.9775   4.9868   5.0107
  5.0410   5.0451   5.0717   5.0836   5.1305   5.1588   5.1903   5.2238
  5.2381   5.2580   5.2944   5.3169   5.3309   5.3391   5.3447   5.3536
  5.3732   5.3865   5.3974   5.4121   5.4200   5.4412   5.4560   5.4566
  5.4726   5.4800   5.4831   5.4897   5.5066   5.5243   5.5389   5.5490
  5.5526   5.5744   5.5814   5.5951   5.6064   5.6124   5.6388   5.6612
  5.6663   5.7123   5.7311   5.7547   5.7933   5.8020   5.8433   5.8772
  5.9064   6.0241   6.0880   6.2796   6.3411   6.3635   6.3697   6.3859
  6.3951   6.4223   6.4328   6.4435   6.5135   6.5231   6.5269   6.5430
  6.5707   6.5774   6.5928   6.6093   6.6221   6.6235   6.6332   6.6382
  6.6414   6.6501   6.6558   6.6606   6.6699   6.7033   6.7215   6.7492
  6.7574   6.7679   6.7805   6.8073   6.8173   6.8274   6.8418   6.8499
  6.8543   6.8614   6.8801   6.8859   6.8964   6.8995   6.9308   6.9351
  6.9370   6.9497   6.9581   6.9618   6.9871   6.9996   7.0305   7.0646
  7.0780   7.0929   7.1047   7.1202   7.1558   7.1858   7.1933   7.2299
  7.2466   7.2492   7.2553   7.2605   7.2730   7.3147   7.3300   7.3816
  7.4257   7.4419   7.4577   7.4638   7.5922   7.6571   7.8429   7.9129
  7.9512   8.0613   8.4020   8.4280   8.4310   8.4434   8.4486   8.4555
  8.4697   8.4750   8.4799   8.4878   8.4928   8.4958   8.5032   8.5080
  8.5151   8.5221   8.5237   8.5310   8.5355   8.5470   8.5581   8.5658
  8.5702   8.5805   8.5888   8.5995   8.6082   8.6142   8.6150   8.6305
  8.6368   8.6398   8.6503   8.6717   8.6838   8.6962   8.6999   8.7046
  8.7219   8.7313   8.7385   8.7545   8.7593   8.7740   8.7836   8.7882
  8.7967   8.8016   8.8034   8.8085   8.8133   8.8189   8.8241   8.8287
  8.8347   8.8368   8.8424   8.8452   8.8535   8.8560   8.8604   8.8705
  8.8718   8.8729   8.8788   8.8841   8.8869   8.8873   8.8922   8.8943
  8.8958   8.8999   8.9024   8.9069   8.9142   8.9202   8.9239   8.9268
  8.9324   8.9348   8.9421   8.9464   8.9475   8.9505   8.9569   8.9595
  8.9627   8.9640   8.9677   8.9713   8.9748   8.9795   8.9831   8.9871
  8.9901   8.9919   8.9973   9.0002   9.0046   9.0059   9.0110   9.0157
  9.0214   9.0241   9.0265   9.0296   9.0357   9.0388   9.0410   9.0434
  9.0484   9.0559   9.0610   9.0626   9.0655   9.0697   9.0745   9.0790
  9.0803   9.0854   9.0933   9.0943   9.0960   9.1032   9.1045   9.1091
  9.1113   9.1136   9.1164   9.1224   9.1295   9.1354   9.1406   9.1462
  9.1473   9.1512   9.1553   9.1606   9.1624   9.1662   9.1670   9.1727
  9.1770   9.1805   9.1828   9.1868   9.1891   9.1941   9.1985   9.2055
  9.2071   9.2129   9.2180   9.2226   9.2264   9.2286   9.2334   9.2353
  9.2470   9.2525   9.2549   9.2574   9.2754   9.2803   9.2929   9.2950
  9.3023   9.3120   9.3177   9.3242   9.3469   9.3559   9.3636   9.3715
  9.3897   9.3959   9.3985   9.4126   9.4305   9.4325   9.4390   9.4520
  9.4524   9.4697   9.4803   9.4876   9.4924   9.4984   9.5034   9.5084
  9.5274   9.5425   9.5672   9.5808   9.6185   9.6215   9.6411   9.6441
  9.6588   9.6680   9.6916   9.6977   9.7147   9.7317  12.0723  12.1568
 12.4369  13.7126  15.0439  15.2454  15.2940  15.3848  15.4701  15.5236
 15.5758  15.6946  15.7222  15.7940  15.8618  15.9036  15.9551  16.1679
 16.2666  16.3912  16.5192  16.6385  16.7228  17.2218  17.4706  17.7135
 17.7804  18.2705  18.8579  18.9233  19.1974
 --------------------------------------------------------------
 
          Ground-State Mulliken Net Atomic Charges

     Atom                 Charge (a.u.)
  ----------------------------------------
      1 C                     0.954286
      2 F                    -0.393808
      3 F                    -0.403902
      4 C                     1.196039
      5 O                    -0.468356
      6 C                     1.342235
      7 C                     1.034977
      8 F                    -0.592374
      9 F                    -0.394402
     10 C                     0.952289
     11 F                    -0.411234
     12 F                    -0.552589
     13 F                    -0.398091
     14 F                    -0.398377
     15 F                    -0.517374
     16 F                    -0.458550
     17 O                    -0.393417
     18 C                     1.192034
     19 C                     0.973805
     20 C                     0.707163
     21 F                    -0.467452
     22 F                    -0.448267
     23 S                     2.022328
     24 F                    -0.500230
     25 F                    -0.484886
     26 F                    -0.410257
     27 F                    -0.420189
     28 F                    -0.409854
     29 O                    -0.943769
     30 O                    -0.948889
     31 O                    -0.958889
  ----------------------------------------
  Sum of atomic charges =    -1.000000

 -----------------------------------------------------------------
                    Cartesian Multipole Moments
 -----------------------------------------------------------------
    Charge (ESU x 10^10)
                -4.8032
    Dipole Moment (Debye)
         X      22.2675      Y      -2.4646      Z       0.4520
       Tot      22.4081
    Quadrupole Moments (Debye-Ang)
        XX    -315.9935     XY      14.1872     YY    -188.0492
        XZ      -3.5736     YZ       0.7571     ZZ    -186.2553
    Octopole Moments (Debye-Ang^2)
       XXX     820.8519    XXY     -89.3163    XYY      76.8356
       YYY     -26.6167    XXZ      24.9629    XYZ      -1.2375
       YYZ       5.9445    XZZ      68.3779    YZZ      -5.0007
       ZZZ      -1.0329
    Hexadecapole Moments (Debye-Ang^3)
      XXXX  -18305.3741   XXXY     555.0216   XXYY   -2918.2507
      XYYY     175.7964   YYYY   -2011.5098   XXXZ    -134.0659
      XXYZ      20.9039   XYYZ     -33.3896   YYYZ      24.8829
      XXZZ   -2706.2993   XYZZ      46.1556   YYZZ    -515.1229
      XZZZ      12.2691   YZZZ      15.1791   ZZZZ   -1097.9649
 -----------------------------------------------------------------
 Calculating analytic gradient of the SCF energy
 Gradient of SCF Energy
            1           2           3           4           5           6
    1  -0.0020261   0.0012612   0.0000557   0.0034004  -0.0016010  -0.0018162
    2  -0.0026419   0.0001958   0.0015777  -0.0025878   0.0036355  -0.0031301
    3  -0.0032358   0.0011314   0.0008272   0.0000468   0.0032564   0.0024868
            7           8           9          10          11          12
    1   0.0019927   0.0008060   0.0000253  -0.0023281   0.0008616  -0.0000216
    2  -0.0037474   0.0016796   0.0013899   0.0032994  -0.0015160   0.0021824
    3  -0.0005114   0.0003601   0.0010935   0.0003294  -0.0007837  -0.0007345
           13          14          15          16          17          18
    1   0.0026216   0.0006988  -0.0015621  -0.0002921  -0.0004964  -0.0007491
    2  -0.0008237  -0.0021608   0.0010247  -0.0001620   0.0045304   0.0010133
    3   0.0004864  -0.0010374  -0.0017793  -0.0006850  -0.0020534  -0.0002138
           19          20          21          22          23          24
    1  -0.0004652  -0.0031609  -0.0018486  -0.0011897   0.0085450   0.0003638
    2   0.0026945  -0.0027057  -0.0004369   0.0006791   0.0015343   0.0007126
    3  -0.0002237   0.0017424  -0.0009678   0.0013612  -0.0013651  -0.0004687
           25          26          27          28          29          30
    1   0.0007479   0.0030971   0.0011206  -0.0010011  -0.0031079  -0.0022317
    2   0.0007134  -0.0021214  -0.0018992  -0.0021602   0.0038037  -0.0039117
    3  -0.0005311   0.0001162   0.0000789   0.0004034  -0.0013881  -0.0026918
           31
    1  -0.0016999
    2  -0.0006613
    3   0.0049507
 Max gradient component =       8.545E-03
 RMS gradient           =       2.104E-03
 Gradient time:  CPU 14876.88 s  wall 478.54 s

     Step 1	:
        Energy is -2777.5010282603
                            Maximum         Tolerance       Converged?
         Gradient           8.86448651e-03	3.00000000e-04	false
         Displacement       7.89915410e-02	1.20000000e-03	false
         Energy change      1.49292293e-03	1.00000000e-06	false


	OPTIMIZATION CYCLE:	2

 Scaling Magnitude of Eigenvalues
 	Minimum: -25.00000000	 Maximum: 25.00000000
 87 Hessian Eigenvalues to form next step
   0.00197640   0.00200000   0.00200422   0.00211548   0.00223727
   0.00317602   0.01271817   0.01645971   0.01677556   0.01981576
   0.04876399   0.05309625   0.05328894   0.06820838   0.06900970
   0.06919539   0.08075214   0.08096787   0.08203250   0.08395752
   0.08506027   0.08563017   0.08578075   0.08635515   0.08718087
   0.08779445   0.10044742   0.10770952   0.10943847   0.10961551
   0.13645430   0.17003098   0.17180214   0.18123760   0.18749334
   0.19451216   0.19605087   0.20990879   0.21059598   0.21146057
   0.21430564   0.24060605   0.25000000   0.25000000   0.25000000
   0.25000000   0.25000000   0.25000000   0.25000000   0.25000000
   0.25000000   0.25000000   0.25000000   0.25000000   0.25000000
   0.25000000   0.25000000   0.25999335   0.26427099   0.27065753
   0.27372450   0.27949393   0.36603661   0.42993215   0.47124981
   0.48223558   0.50228212   0.51285143   0.52402219   0.52545902
   0.52773456   0.54481566   0.55130759   0.55652343   0.56353541
   0.56418776   0.56479040   0.56702034   0.57209003   0.57656850
   0.57753146   0.58043247   0.58100531   0.59077276   0.76092164
   0.83831660   0.84319099

 Minimum Search taking a RFO step
 Searching for Lambda that minimizes along all modes
	Value of Lambda   -0.00167090
	Norm  of Stepsize  0.22727199
	RMS   of Stepsize  0.02436611

	Performing Iterative Coordinate Back-Transformation

	  Starting from Previous Position

	  iter:	0	rms: 9.6010394288e-02	maxdev: 2.2595852039e-01
	  iter:	1	rms: 2.6260472170e-03	maxdev: 8.6205945977e-03
	  iter:	2	rms: 1.3877789877e-06	maxdev: 4.6589563545e-06
	  iter:	3	rms: 1.2212430522e-12	maxdev: 7.2428372369e-12	 Success!

	Finished Iterative Coordinate Back-Transformation
 ----------------------------------------------------------------
             Standard Nuclear Orientation (Angstroms)
    I     Atom           X                Y                Z
 ----------------------------------------------------------------
    1      C       4.0914036925     1.4351107647     0.7738984515
    2      F       3.3286364497     2.5099340261     0.9684139609
    3      F       4.2191744469     0.7862687840     1.9324406879
    4      C       3.4293276781     0.5293830734    -0.3207241917
    5      O       2.2124481821     0.1048131096     0.2053013960
    6      C       1.0018278965     0.2644011750    -0.4541524549
    7      C      -0.1319656879    -0.4064501586     0.4191134044
    8      F       0.0248043343     0.0570507092     1.6977532271
    9      F       5.3045003083     1.8462838999     0.3817946370
   10      C       4.2852838087    -0.7225083165    -0.7151566466
   11      F       4.5184751467    -1.4965015044     0.3483660259
   12      F       3.3080953088     1.2891865353    -1.4385257536
   13      F       3.6390026291    -1.4401013366    -1.6315929560
   14      F       5.4615617035    -0.3460789226    -1.2326942017
   15      F       1.0298662644    -0.2863795967    -1.6821238311
   16      F       0.7324427916     1.5683102226    -0.6021191342
   17      O      -1.2881082113     0.0317265642    -0.1631229181
   18      C      -2.6011192656    -0.2866243895     0.2734429719
   19      C       0.0062428731    -1.9718384185     0.5103568211
   20      C      -3.5493404306     0.7674219652    -0.3709058484
   21      F      -2.9006131774    -1.5302105834    -0.1241009299
   22      F      -2.6579447669    -0.2519630366     1.6079185129
   23      S      -5.4243082202     0.4872091486    -0.1282300175
   24      F      -3.1949504005     1.9695994810     0.1536776654
   25      F      -3.2685319944     0.8043385233    -1.6996737309
   26      F      -0.8295830250    -2.4571354066     1.4264301677
   27      F      -0.2513992902    -2.5527520511    -0.6609879432
   28      F       1.2550919261    -2.3147357204     0.8779720318
   29      O      -5.9669347675     1.7355069996    -0.6687076463
   30      O      -5.6811904671    -0.7133576628    -0.9278854258
   31      O      -5.5383674173     0.3184369695     1.3239144008
 ----------------------------------------------------------------
 Molecular Point Group                 C1    NOp =  1
 Largest Abelian Subgroup              C1    NOp =  1
 Nuclear Repulsion Energy =        4344.46596909 hartrees
 There are      129 alpha and      129 beta electrons
 Applying Cartesian multipole field
    Component          Value
    ---------          -----
     (2,0,0)        1.00000E-12
     (0,2,0)        2.00000E-11
     (0,0,2)       -3.00000E-11
 Nucleus-field energy     = 1.6305692257e-08 hartrees
 Requested basis set is aug-cc-pVTZ
 There are 436 shells and 1430 basis functions
 A cutoff of  1.0D-12 yielded  65648 shell pairs
 There are    664228 function pairs (    927031 Cartesian)
 Smallest overlap matrix eigenvalue = 3.48E-06
 Guess MOs from SCF MO coefficient file

 -----------------------------------------------------------------------
  General SCF calculation program by
  Eric Jon Sundstrom, Paul Horn, Yuezhi Mao, Dmitri Zuev, Alec White,
  David Stuck, Shaama M.S., Shane Yost, Joonho Lee, David Small,
  Daniel Levine, Susi Lehtola, Hugh Burton, Evgeny Epifanovsky,
  Bang C. Huynh
 -----------------------------------------------------------------------
 Exchange:     0.2000 Hartree-Fock + 0.0800 Slater + 0.7200 B88
 Correlation:  0.1900 VWN1RPA + 0.8100 LYP
 Using SG-1 standard quadrature grid
 A restricted SCF calculation will be
 performed using DIIS
 SCF converges when DIIS error is below 1.0e-08
 ---------------------------------------
  Cycle       Energy         DIIS error
 ---------------------------------------
    1   -2777.4786319679      3.66e-04  
    2   -2777.5014322602      4.08e-05  
    3   -2777.5012778074      5.72e-05  
    4   -2777.5017590556      7.62e-06  
    5   -2777.5017634070      5.40e-06  
    6   -2777.5017682584      1.54e-06  
    7   -2777.5017686451      3.82e-07  
    8   -2777.5017686675      1.24e-07  
    9   -2777.5017686699      2.76e-08  
   10   -2777.5017686639      7.57e-09  Convergence criterion met
 ---------------------------------------
 SCF time:   CPU 29486.18s  wall 885.00s 
 SCF   energy = -2777.50176866
 Total energy = -2777.50176866
 
 --------------------------------------------------------------
 
                    Orbital Energies (a.u.)
 --------------------------------------------------------------
 
 Alpha MOs
 -- Occupied --
-88.9482 -24.6989 -24.6986 -24.6986 -24.6979 -24.6977 -24.6960 -24.6946
-24.6734 -24.6705 -24.6698 -24.6685 -24.6680 -24.6515 -24.6280 -24.6261
-24.5971 -24.5970 -19.1674 -19.1264 -18.9626 -18.9620 -18.9617 -10.4144
-10.4139 -10.3859 -10.3820 -10.3478 -10.3310 -10.3145 -10.2475  -7.9665
 -5.9317  -5.9296  -5.9296  -1.3062  -1.2995  -1.2748  -1.2570  -1.2345
 -1.2144  -1.2132  -1.2132  -1.2112  -1.2106  -1.1931  -1.1835  -1.1832
 -1.1825  -1.1608  -1.1416  -1.1025  -1.0752  -1.0325  -0.9730  -0.8393
 -0.8387  -0.8033  -0.7548  -0.7022  -0.6860  -0.6809  -0.6429  -0.6196
 -0.6032  -0.5992  -0.5908  -0.5844  -0.5769  -0.5709  -0.5668  -0.5599
 -0.5576  -0.5542  -0.5522  -0.5360  -0.5305  -0.5199  -0.5003  -0.4942
 -0.4743  -0.4708  -0.4584  -0.4553  -0.4494  -0.4491  -0.4486  -0.4433
 -0.4405  -0.4288  -0.4275  -0.4220  -0.4209  -0.4189  -0.4176  -0.4116
 -0.4068  -0.4050  -0.4002  -0.3967  -0.3953  -0.3930  -0.3915  -0.3900
 -0.3867  -0.3765  -0.3723  -0.3692  -0.3658  -0.3625  -0.3611  -0.3516
 -0.3463  -0.3395  -0.3301  -0.3249  -0.3091  -0.3079  -0.3048  -0.3030
 -0.3021  -0.2797  -0.2768  -0.1975  -0.1973  -0.1680  -0.1663  -0.1553
 -0.1202
 -- Virtual --
  0.0516   0.0622   0.0691   0.0758   0.0892   0.0960   0.0967   0.1015
  0.1065   0.1069   0.1116   0.1221   0.1278   0.1310   0.1336   0.1360
  0.1372   0.1385   0.1482   0.1493   0.1550   0.1622   0.1648   0.1677
  0.1701   0.1724   0.1749   0.1771   0.1782   0.1802   0.1841   0.1859
  0.1883   0.1906   0.1944   0.1975   0.2022   0.2032   0.2069   0.2112
  0.2138   0.2203   0.2244   0.2309   0.2322   0.2341   0.2361   0.2384
  0.2404   0.2424   0.2450   0.2463   0.2482   0.2503   0.2528   0.2559
  0.2568   0.2591   0.2643   0.2652   0.2661   0.2695   0.2709   0.2732
  0.2751   0.2772   0.2797   0.2809   0.2824   0.2836   0.2859   0.2896
  0.2906   0.2959   0.2968   0.2976   0.2993   0.3016   0.3048   0.3055
  0.3093   0.3102   0.3123   0.3152   0.3177   0.3193   0.3216   0.3243
  0.3272   0.3296   0.3322   0.3328   0.3354   0.3367   0.3393   0.3409
  0.3434   0.3477   0.3496   0.3512   0.3544   0.3569   0.3580   0.3617
  0.3650   0.3678   0.3689   0.3750   0.3775   0.3790   0.3835   0.3846
  0.3873   0.3898   0.3910   0.3954   0.3992   0.4024   0.4073   0.4092
  0.4139   0.4149   0.4198   0.4238   0.4275   0.4317   0.4336   0.4371
  0.4392   0.4459   0.4502   0.4522   0.4541   0.4613   0.4653   0.4677
  0.4719   0.4768   0.4775   0.4819   0.4871   0.4928   0.4946   0.4964
  0.5017   0.5021   0.5071   0.5120   0.5128   0.5163   0.5193   0.5266
  0.5285   0.5335   0.5364   0.5404   0.5442   0.5447   0.5500   0.5510
  0.5560   0.5577   0.5613   0.5628   0.5668   0.5688   0.5708   0.5769
  0.5805   0.5827   0.5882   0.5901   0.5915   0.5969   0.5986   0.6052
  0.6067   0.6113   0.6150   0.6170   0.6213   0.6228   0.6281   0.6327
  0.6346   0.6392   0.6446   0.6502   0.6546   0.6573   0.6621   0.6635
  0.6672   0.6697   0.6711   0.6850   0.6881   0.6922   0.7056   0.7082
  0.7121   0.7172   0.7202   0.7231   0.7352   0.7371   0.7423   0.7509
  0.7544   0.7678   0.7764   0.7790   0.7838   0.7861   0.7891   0.7905
  0.7939   0.7968   0.8007   0.8038   0.8072   0.8086   0.8122   0.8165
  0.8203   0.8256   0.8283   0.8358   0.8397   0.8471   0.8489   0.8546
  0.8591   0.8619   0.8673   0.8747   0.8818   0.8839   0.8902   0.8921
  0.8991   0.9020   0.9038   0.9050   0.9157   0.9179   0.9250   0.9261
  0.9283   0.9348   0.9355   0.9409   0.9507   0.9543   0.9572   0.9587
  0.9660   0.9689   0.9760   0.9802   0.9858   0.9931   0.9973   0.9990
  1.0015   1.0034   1.0047   1.0091   1.0107   1.0164   1.0217   1.0263
  1.0268   1.0314   1.0335   1.0392   1.0424   1.0429   1.0505   1.0563
  1.0588   1.0641   1.0694   1.0712   1.0720   1.0774   1.0809   1.0829
  1.0859   1.0882   1.0917   1.0972   1.1032   1.1076   1.1082   1.1114
  1.1147   1.1167   1.1240   1.1264   1.1354   1.1374   1.1441   1.1477
  1.1502   1.1534   1.1598   1.1610   1.1637   1.1679   1.1719   1.1754
  1.1786   1.1814   1.1888   1.1907   1.1959   1.1992   1.2038   1.2056
  1.2119   1.2140   1.2190   1.2206   1.2217   1.2255   1.2317   1.2361
  1.2370   1.2404   1.2437   1.2490   1.2520   1.2608   1.2637   1.2656
  1.2667   1.2721   1.2726   1.2823   1.2853   1.2906   1.2935   1.2958
  1.2983   1.3000   1.3028   1.3042   1.3084   1.3148   1.3173   1.3246
  1.3311   1.3337   1.3373   1.3414   1.3443   1.3503   1.3512   1.3565
  1.3606   1.3645   1.3699   1.3730   1.3813   1.3855   1.3878   1.3917
  1.3987   1.4078   1.4120   1.4176   1.4182   1.4227   1.4256   1.4290
  1.4302   1.4373   1.4408   1.4445   1.4498   1.4503   1.4582   1.4587
  1.4647   1.4704   1.4784   1.4840   1.4863   1.4902   1.4945   1.4972
  1.5028   1.5051   1.5112   1.5170   1.5230   1.5246   1.5299   1.5321
  1.5394   1.5434   1.5469   1.5504   1.5548   1.5589   1.5633   1.5682
  1.5818   1.5862   1.5920   1.5932   1.5957   1.5982   1.6026   1.6072
  1.6135   1.6203   1.6235   1.6269   1.6296   1.6335   1.6416   1.6438
  1.6504   1.6626   1.6669   1.6720   1.6765   1.6798   1.6868   1.6878
  1.6943   1.6961   1.6997   1.7078   1.7143   1.7176   1.7237   1.7303
  1.7361   1.7422   1.7498   1.7549   1.7600   1.7618   1.7716   1.7776
  1.7829   1.7880   1.7937   1.7997   1.8039   1.8064   1.8093   1.8166
  1.8241   1.8312   1.8410   1.8419   1.8495   1.8547   1.8633   1.8666
  1.8745   1.8799   1.8842   1.8964   1.8984   1.9094   1.9147   1.9224
  1.9268   1.9310   1.9328   1.9471   1.9551   1.9595   1.9732   1.9793
  1.9855   1.9872   1.9927   2.0057   2.0104   2.0160   2.0220   2.0276
  2.0354   2.0413   2.0535   2.0557   2.0629   2.0660   2.0699   2.0810
  2.0839   2.0894   2.0991   2.1057   2.1122   2.1220   2.1284   2.1295
  2.1391   2.1474   2.1485   2.1563   2.1594   2.1690   2.1743   2.1813
  2.1896   2.1978   2.2127   2.2169   2.2219   2.2268   2.2307   2.2326
  2.2463   2.2564   2.2731   2.2881   2.2924   2.3109   2.3191   2.3232
  2.3339   2.3402   2.3516   2.3559   2.3675   2.3770   2.3836   2.3969
  2.3990   2.4151   2.4217   2.4318   2.4373   2.4446   2.4473   2.4579
  2.4647   2.4771   2.4804   2.4847   2.4882   2.4959   2.4971   2.5114
  2.5189   2.5234   2.5273   2.5276   2.5410   2.5439   2.5488   2.5557
  2.5634   2.5678   2.5705   2.5756   2.5818   2.5843   2.5893   2.5986
  2.6026   2.6121   2.6140   2.6198   2.6238   2.6269   2.6343   2.6381
  2.6400   2.6446   2.6482   2.6510   2.6536   2.6622   2.6629   2.6657
  2.6721   2.6796   2.6800   2.6836   2.6871   2.6889   2.6941   2.6963
  2.7004   2.7103   2.7123   2.7184   2.7231   2.7277   2.7329   2.7388
  2.7436   2.7439   2.7487   2.7548   2.7591   2.7643   2.7676   2.7746
  2.7791   2.7819   2.7854   2.7928   2.8011   2.8058   2.8101   2.8124
  2.8193   2.8235   2.8305   2.8346   2.8359   2.8418   2.8463   2.8491
  2.8502   2.8579   2.8664   2.8679   2.8703   2.8772   2.8850   2.8872
  2.8923   2.9022   2.9037   2.9072   2.9076   2.9147   2.9228   2.9289
  2.9331   2.9353   2.9365   2.9413   2.9525   2.9553   2.9585   2.9657
  2.9730   2.9760   2.9810   2.9853   2.9925   2.9956   3.0015   3.0058
  3.0130   3.0176   3.0200   3.0253   3.0332   3.0339   3.0387   3.0436
  3.0505   3.0513   3.0549   3.0573   3.0648   3.0686   3.0723   3.0741
  3.0841   3.0881   3.0934   3.0951   3.1001   3.1032   3.1070   3.1159
  3.1235   3.1247   3.1292   3.1364   3.1404   3.1450   3.1507   3.1576
  3.1618   3.1653   3.1740   3.1812   3.1877   3.1887   3.1987   3.2004
  3.2018   3.2075   3.2134   3.2146   3.2226   3.2267   3.2381   3.2434
  3.2460   3.2554   3.2603   3.2637   3.2666   3.2728   3.2756   3.2801
  3.2833   3.2870   3.2928   3.2968   3.3072   3.3096   3.3124   3.3185
  3.3298   3.3317   3.3365   3.3419   3.3441   3.3505   3.3552   3.3633
  3.3673   3.3689   3.3792   3.3877   3.3897   3.3916   3.3922   3.4048
  3.4112   3.4188   3.4243   3.4267   3.4316   3.4366   3.4421   3.4467
  3.4510   3.4528   3.4601   3.4677   3.4713   3.4758   3.4847   3.4893
  3.4911   3.4965   3.4992   3.5059   3.5085   3.5178   3.5226   3.5287
  3.5330   3.5347   3.5400   3.5448   3.5461   3.5577   3.5624   3.5668
  3.5732   3.5760   3.5857   3.5908   3.6014   3.6051   3.6072   3.6118
  3.6179   3.6278   3.6319   3.6345   3.6378   3.6419   3.6507   3.6603
  3.6671   3.6681   3.6709   3.6764   3.6778   3.6890   3.6999   3.7017
  3.7075   3.7152   3.7176   3.7286   3.7371   3.7447   3.7479   3.7503
  3.7538   3.7620   3.7767   3.7848   3.7880   3.7946   3.7993   3.8053
  3.8149   3.8217   3.8276   3.8423   3.8467   3.8534   3.8639   3.8701
  3.8739   3.8816   3.8852   3.8945   3.8958   3.9062   3.9110   3.9186
  3.9299   3.9384   3.9518   3.9527   3.9662   3.9684   3.9705   3.9831
  3.9873   3.9912   3.9950   4.0060   4.0163   4.0176   4.0284   4.0330
  4.0379   4.0466   4.0595   4.0646   4.0712   4.0775   4.0794   4.0855
  4.0894   4.1070   4.1162   4.1172   4.1257   4.1323   4.1421   4.1607
  4.1632   4.1662   4.1748   4.1936   4.2024   4.2126   4.2173   4.2239
  4.2263   4.2399   4.2488   4.2520   4.2569   4.2666   4.2807   4.2925
  4.2976   4.3102   4.3169   4.3308   4.3523   4.3665   4.3779   4.3834
  4.3909   4.3968   4.4003   4.4064   4.4240   4.4346   4.4593   4.4672
  4.4798   4.4881   4.4989   4.5079   4.5252   4.5337   4.5415   4.5531
  4.5575   4.5717   4.5802   4.5927   4.6075   4.6145   4.6223   4.6373
  4.6516   4.6603   4.6627   4.6834   4.6883   4.6965   4.7040   4.7152
  4.7178   4.7268   4.7301   4.7417   4.7450   4.7537   4.7775   4.8010
  4.8096   4.8179   4.8257   4.8324   4.8443   4.8472   4.8631   4.8935
  4.9078   4.9186   4.9366   4.9510   4.9657   4.9786   4.9895   5.0154
  5.0434   5.0528   5.0772   5.0908   5.1346   5.1637   5.1995   5.2249
  5.2386   5.2549   5.2955   5.3182   5.3341   5.3410   5.3480   5.3602
  5.3735   5.3890   5.4027   5.4120   5.4264   5.4494   5.4572   5.4671
  5.4820   5.4849   5.4864   5.4964   5.5114   5.5254   5.5380   5.5457
  5.5531   5.5804   5.5858   5.5977   5.6025   5.6153   5.6505   5.6631
  5.6718   5.7138   5.7347   5.7547   5.7988   5.8195   5.8351   5.8917
  5.9151   6.0357   6.0925   6.2773   6.3498   6.3664   6.3702   6.3888
  6.3975   6.4247   6.4360   6.4511   6.5134   6.5236   6.5271   6.5441
  6.5718   6.5823   6.5956   6.6124   6.6241   6.6251   6.6338   6.6392
  6.6416   6.6513   6.6573   6.6648   6.6719   6.7085   6.7176   6.7506
  6.7594   6.7700   6.7815   6.8088   6.8208   6.8312   6.8448   6.8533
  6.8585   6.8624   6.8807   6.8885   6.8995   6.9008   6.9325   6.9343
  6.9396   6.9508   6.9600   6.9642   6.9922   7.0092   7.0281   7.0634
  7.0796   7.0971   7.1102   7.1231   7.1599   7.1919   7.1993   7.2351
  7.2470   7.2545   7.2626   7.2659   7.2829   7.3172   7.3320   7.3887
  7.4343   7.4527   7.4625   7.4688   7.5866   7.6655   7.8469   7.9123
  7.9514   8.0684   8.4011   8.4273   8.4309   8.4450   8.4493   8.4583
  8.4698   8.4787   8.4816   8.4896   8.4946   8.4993   8.5034   8.5113
  8.5143   8.5237   8.5257   8.5319   8.5355   8.5464   8.5620   8.5644
  8.5707   8.5795   8.5902   8.6013   8.6097   8.6146   8.6172   8.6308
  8.6336   8.6398   8.6533   8.6696   8.6849   8.7009   8.7025   8.7170
  8.7242   8.7339   8.7414   8.7543   8.7611   8.7741   8.7848   8.7886
  8.7967   8.8022   8.8072   8.8131   8.8142   8.8220   8.8241   8.8293
  8.8349   8.8387   8.8441   8.8484   8.8555   8.8562   8.8629   8.8693
  8.8715   8.8735   8.8807   8.8849   8.8881   8.8897   8.8925   8.8940
  8.8976   8.9026   8.9070   8.9098   8.9168   8.9241   8.9275   8.9302
  8.9367   8.9425   8.9436   8.9515   8.9528   8.9545   8.9579   8.9619
  8.9647   8.9666   8.9701   8.9739   8.9781   8.9809   8.9880   8.9914
  8.9944   8.9962   8.9998   9.0039   9.0060   9.0099   9.0168   9.0179
  9.0229   9.0278   9.0310   9.0316   9.0331   9.0398   9.0466   9.0490
  9.0496   9.0575   9.0627   9.0637   9.0666   9.0736   9.0751   9.0810
  9.0825   9.0870   9.0919   9.0932   9.1008   9.1022   9.1070   9.1119
  9.1138   9.1187   9.1219   9.1296   9.1324   9.1389   9.1427   9.1453
  9.1493   9.1510   9.1554   9.1624   9.1641   9.1671   9.1719   9.1747
  9.1808   9.1812   9.1856   9.1881   9.1916   9.1952   9.2053   9.2096
  9.2116   9.2167   9.2234   9.2263   9.2303   9.2325   9.2371   9.2436
  9.2520   9.2577   9.2631   9.2650   9.2759   9.2804   9.2949   9.3002
  9.3032   9.3171   9.3230   9.3274   9.3485   9.3575   9.3655   9.3712
  9.3936   9.3993   9.4037   9.4192   9.4338   9.4352   9.4419   9.4528
  9.4542   9.4744   9.4845   9.4888   9.4999   9.5049   9.5093   9.5107
  9.5287   9.5480   9.5730   9.5894   9.6178   9.6230   9.6414   9.6450
  9.6554   9.6702   9.6949   9.6987   9.7139   9.7303  12.0810  12.1617
 12.4781  13.7308  15.0505  15.2614  15.3261  15.4102  15.4787  15.5273
 15.6434  15.7266  15.7536  15.8431  15.8880  15.9262  15.9814  16.1801
 16.2991  16.4148  16.5868  16.6386  16.7586  17.2206  17.4929  17.7158
 17.8076  18.3107  18.8594  18.8843  19.2094
 --------------------------------------------------------------
 
          Ground-State Mulliken Net Atomic Charges

     Atom                 Charge (a.u.)
  ----------------------------------------
      1 C                     0.950957
      2 F                    -0.393606
      3 F                    -0.402909
      4 C                     1.213592
      5 O                    -0.488029
      6 C                     1.321336
      7 C                     1.035224
      8 F                    -0.595004
      9 F                    -0.395104
     10 C                     0.955083
     11 F                    -0.411991
     12 F                    -0.554799
     13 F                    -0.396593
     14 F                    -0.399821
     15 F                    -0.510236
     16 F                    -0.464055
     17 O                    -0.394355
     18 C                     1.227569
     19 C                     0.988591
     20 C                     0.692498
     21 F                    -0.472321
[...]
  1.1805   1.1832   1.1862   1.1890   1.1932   1.1995   1.2051   1.2095
  1.2101   1.2121   1.2186   1.2217   1.2253   1.2271   1.2303   1.2343
  1.2368   1.2415   1.2440   1.2489   1.2543   1.2576   1.2621   1.2668
  1.2697   1.2704   1.2746   1.2807   1.2820   1.2909   1.2933   1.2948
  1.2981   1.3004   1.3035   1.3070   1.3109   1.3156   1.3192   1.3259
  1.3270   1.3327   1.3368   1.3413   1.3444   1.3480   1.3508   1.3570
  1.3594   1.3626   1.3720   1.3747   1.3798   1.3834   1.3865   1.3931
  1.4022   1.4078   1.4098   1.4151   1.4178   1.4221   1.4255   1.4261
  1.4299   1.4368   1.4397   1.4428   1.4463   1.4535   1.4553   1.4582
  1.4649   1.4669   1.4795   1.4836   1.4870   1.4904   1.4947   1.4992
  1.5028   1.5065   1.5103   1.5166   1.5231   1.5278   1.5313   1.5363
  1.5400   1.5424   1.5460   1.5517   1.5561   1.5575   1.5610   1.5684
  1.5809   1.5857   1.5933   1.5967   1.5986   1.5999   1.6034   1.6090
  1.6169   1.6209   1.6223   1.6266   1.6298   1.6323   1.6451   1.6505
  1.6557   1.6588   1.6697   1.6721   1.6751   1.6803   1.6859   1.6892
  1.6950   1.6955   1.7016   1.7103   1.7166   1.7214   1.7254   1.7303
  1.7345   1.7442   1.7485   1.7512   1.7532   1.7646   1.7755   1.7785
  1.7838   1.7871   1.7927   1.8028   1.8039   1.8100   1.8117   1.8149
  1.8234   1.8324   1.8404   1.8452   1.8494   1.8565   1.8643   1.8673
  1.8749   1.8810   1.8873   1.8945   1.8974   1.9102   1.9144   1.9218
  1.9262   1.9311   1.9392   1.9455   1.9570   1.9627   1.9728   1.9789
  1.9866   1.9881   1.9960   2.0039   2.0068   2.0203   2.0256   2.0294
  2.0378   2.0399   2.0541   2.0615   2.0649   2.0703   2.0717   2.0809
  2.0823   2.0924   2.0996   2.1052   2.1096   2.1229   2.1270   2.1306
  2.1353   2.1445   2.1504   2.1566   2.1610   2.1691   2.1783   2.1876
  2.1923   2.1993   2.2115   2.2181   2.2225   2.2281   2.2324   2.2414
  2.2493   2.2574   2.2717   2.2894   2.2918   2.3118   2.3196   2.3286
  2.3342   2.3377   2.3520   2.3566   2.3668   2.3720   2.3865   2.3959
  2.3993   2.4171   2.4210   2.4311   2.4357   2.4452   2.4473   2.4613
  2.4642   2.4789   2.4809   2.4852   2.4948   2.4966   2.5004   2.5132
  2.5184   2.5233   2.5256   2.5295   2.5426   2.5452   2.5486   2.5508
  2.5614   2.5677   2.5710   2.5763   2.5820   2.5859   2.5941   2.6019
  2.6072   2.6146   2.6181   2.6197   2.6251   2.6273   2.6331   2.6350
  2.6390   2.6406   2.6451   2.6491   2.6529   2.6560   2.6643   2.6667
  2.6698   2.6743   2.6802   2.6830   2.6861   2.6901   2.6922   2.6952
  2.7021   2.7079   2.7152   2.7195   2.7236   2.7265   2.7311   2.7401
  2.7434   2.7470   2.7482   2.7536   2.7574   2.7658   2.7718   2.7768
  2.7797   2.7844   2.7912   2.7928   2.8011   2.8059   2.8068   2.8145
  2.8175   2.8259   2.8300   2.8320   2.8389   2.8427   2.8434   2.8501
  2.8585   2.8630   2.8636   2.8682   2.8719   2.8762   2.8855   2.8864
  2.8948   2.8979   2.9023   2.9080   2.9086   2.9188   2.9265   2.9277
  2.9294   2.9349   2.9388   2.9414   2.9519   2.9550   2.9577   2.9644
  2.9713   2.9787   2.9859   2.9867   2.9910   2.9957   2.9986   3.0039
  3.0080   3.0188   3.0224   3.0271   3.0304   3.0361   3.0401   3.0430
  3.0468   3.0488   3.0553   3.0579   3.0626   3.0716   3.0738   3.0761
  3.0810   3.0913   3.0929   3.0971   3.1005   3.1059   3.1104   3.1141
  3.1245   3.1254   3.1300   3.1350   3.1403   3.1453   3.1495   3.1541
  3.1576   3.1632   3.1739   3.1805   3.1829   3.1955   3.1991   3.2012
  3.2043   3.2095   3.2140   3.2161   3.2240   3.2292   3.2338   3.2399
  3.2467   3.2552   3.2584   3.2654   3.2688   3.2730   3.2754   3.2804
  3.2849   3.2883   3.2911   3.2983   3.3043   3.3086   3.3150   3.3176
  3.3288   3.3330   3.3352   3.3399   3.3437   3.3478   3.3534   3.3626
  3.3668   3.3708   3.3811   3.3820   3.3897   3.3930   3.3963   3.4063
  3.4141   3.4198   3.4255   3.4288   3.4344   3.4395   3.4413   3.4490
  3.4519   3.4614   3.4656   3.4720   3.4765   3.4780   3.4824   3.4859
  3.4906   3.4989   3.4996   3.5032   3.5077   3.5174   3.5221   3.5286
  3.5300   3.5327   3.5387   3.5449   3.5493   3.5555   3.5621   3.5657
  3.5715   3.5772   3.5848   3.5884   3.6037   3.6064   3.6090   3.6139
  3.6152   3.6276   3.6350   3.6378   3.6399   3.6438   3.6518   3.6603
  3.6649   3.6693   3.6707   3.6773   3.6786   3.6946   3.6967   3.7058
  3.7086   3.7111   3.7163   3.7325   3.7418   3.7427   3.7501   3.7522
  3.7579   3.7656   3.7742   3.7790   3.7880   3.7972   3.8017   3.8100
  3.8201   3.8229   3.8276   3.8363   3.8420   3.8530   3.8637   3.8714
  3.8741   3.8792   3.8873   3.8888   3.9006   3.9076   3.9132   3.9154
  3.9374   3.9420   3.9476   3.9591   3.9633   3.9684   3.9776   3.9815
  3.9875   3.9898   3.9969   4.0084   4.0102   4.0230   4.0294   4.0310
  4.0435   4.0501   4.0592   4.0645   4.0729   4.0782   4.0875   4.0938
  4.0995   4.1012   4.1113   4.1253   4.1287   4.1358   4.1458   4.1559
  4.1654   4.1679   4.1791   4.1927   4.1990   4.2095   4.2166   4.2225
  4.2251   4.2423   4.2487   4.2586   4.2651   4.2729   4.2775   4.2907
  4.2992   4.3075   4.3167   4.3256   4.3503   4.3631   4.3757   4.3842
  4.3916   4.3974   4.4031   4.4093   4.4205   4.4312   4.4573   4.4639
  4.4799   4.4818   4.5013   4.5095   4.5284   4.5311   4.5452   4.5549
  4.5637   4.5701   4.5742   4.5917   4.6007   4.6144   4.6232   4.6385
  4.6515   4.6604   4.6684   4.6847   4.6902   4.7000   4.7043   4.7166
  4.7230   4.7292   4.7328   4.7441   4.7543   4.7560   4.7803   4.8046
  4.8073   4.8212   4.8259   4.8338   4.8385   4.8563   4.8617   4.8973
  4.9115   4.9241   4.9347   4.9532   4.9677   4.9779   4.9958   5.0132
  5.0465   5.0633   5.0830   5.0959   5.1349   5.1546   5.2017   5.2213
  5.2442   5.2572   5.2954   5.3220   5.3312   5.3394   5.3460   5.3586
  5.3764   5.3874   5.4032   5.4166   5.4241   5.4499   5.4516   5.4654
  5.4764   5.4814   5.4896   5.4983   5.5119   5.5258   5.5405   5.5506
  5.5518   5.5781   5.5915   5.5931   5.5987   5.6209   5.6523   5.6579
  5.6717   5.7141   5.7405   5.7656   5.7990   5.8198   5.8376   5.9042
  5.9310   6.0482   6.0969   6.2805   6.3537   6.3682   6.3692   6.3894
  6.3972   6.4251   6.4357   6.4508   6.5134   6.5241   6.5270   6.5415
  6.5723   6.5853   6.5972   6.6121   6.6243   6.6260   6.6339   6.6385
  6.6408   6.6503   6.6568   6.6696   6.6746   6.7120   6.7217   6.7516
  6.7619   6.7697   6.7823   6.8107   6.8211   6.8365   6.8483   6.8537
  6.8595   6.8621   6.8797   6.8881   6.8978   6.9012   6.9325   6.9333
  6.9387   6.9505   6.9576   6.9613   6.9904   7.0091   7.0278   7.0682
  7.0820   7.0966   7.1208   7.1259   7.1521   7.1901   7.2036   7.2360
  7.2470   7.2538   7.2611   7.2662   7.2817   7.3171   7.3305   7.3887
  7.4357   7.4546   7.4628   7.4692   7.5860   7.6707   7.8485   7.9090
  7.9492   8.0742   8.4033   8.4272   8.4313   8.4447   8.4499   8.4604
  8.4678   8.4766   8.4829   8.4909   8.4926   8.4969   8.5038   8.5107
  8.5113   8.5252   8.5259   8.5338   8.5361   8.5488   8.5610   8.5652
  8.5694   8.5809   8.5865   8.6044   8.6114   8.6158   8.6166   8.6293
  8.6381   8.6417   8.6526   8.6694   8.6864   8.7016   8.7048   8.7171
  8.7247   8.7342   8.7396   8.7541   8.7608   8.7733   8.7860   8.7902
  8.7978   8.8009   8.8100   8.8140   8.8147   8.8210   8.8216   8.8312
  8.8360   8.8399   8.8436   8.8474   8.8553   8.8590   8.8606   8.8660
  8.8679   8.8751   8.8820   8.8858   8.8883   8.8897   8.8929   8.8951
  8.8975   8.9020   8.9070   8.9090   8.9169   8.9232   8.9283   8.9310
  8.9398   8.9423   8.9464   8.9516   8.9533   8.9555   8.9560   8.9631
  8.9644   8.9662   8.9706   8.9757   8.9805   8.9828   8.9859   8.9921
  8.9931   8.9971   8.9998   9.0027   9.0066   9.0080   9.0147   9.0196
  9.0237   9.0266   9.0314   9.0323   9.0342   9.0433   9.0463   9.0494
  9.0539   9.0589   9.0604   9.0672   9.0697   9.0721   9.0757   9.0791
  9.0821   9.0884   9.0932   9.0977   9.0996   9.1015   9.1054   9.1087
  9.1169   9.1200   9.1237   9.1311   9.1344   9.1402   9.1434   9.1467
  9.1504   9.1524   9.1552   9.1614   9.1639   9.1695   9.1719   9.1752
  9.1779   9.1815   9.1838   9.1875   9.1903   9.1967   9.2067   9.2073
  9.2089   9.2177   9.2232   9.2246   9.2310   9.2329   9.2397   9.2452
  9.2524   9.2582   9.2622   9.2658   9.2762   9.2815   9.2944   9.3000
  9.3030   9.3168   9.3227   9.3272   9.3498   9.3584   9.3652   9.3676
  9.3908   9.3968   9.4073   9.4182   9.4332   9.4365   9.4410   9.4512
  9.4556   9.4793   9.4855   9.4884   9.5006   9.5048   9.5068   9.5116
  9.5332   9.5487   9.5754   9.5902   9.6137   9.6207   9.6401   9.6419
  9.6540   9.6711   9.6916   9.6981   9.7118   9.7287  12.0783  12.1594
 12.4641  13.7338  15.0544  15.2473  15.3145  15.4335  15.4541  15.5310
 15.6338  15.7040  15.7677  15.8216  15.8778  15.9289  15.9978  16.1803
 16.3395  16.4159  16.5798  16.6524  16.7680  17.2211  17.5279  17.7378
 17.7607  18.3185  18.8552  18.8987  19.2406
 --------------------------------------------------------------
 
          Ground-State Mulliken Net Atomic Charges

     Atom                 Charge (a.u.)
  ----------------------------------------
      1 C                     0.954525
      2 F                    -0.393535
      3 F                    -0.403618
      4 C                     1.222058
      5 O                    -0.503304
      6 C                     1.343374
      7 C                     1.047499
      8 F                    -0.594893
      9 F                    -0.396990
     10 C                     0.940637
     11 F                    -0.407886
     12 F                    -0.554526
     13 F                    -0.401482
     14 F                    -0.398240
     15 F                    -0.505393
     16 F                    -0.470858
     17 O                    -0.391019
     18 C                     1.225694
     19 C                     0.977009
     20 C                     0.690547
     21 F                    -0.471058
     22 F                    -0.459433
     23 S                     2.033942
     24 F                    -0.501142
     25 F                    -0.486628
     26 F                    -0.412165
     27 F                    -0.425284
     28 F                    -0.403687
     29 O                    -0.944991
     30 O                    -0.950684
     31 O                    -0.958472
  ----------------------------------------
  Sum of atomic charges =    -1.000000

 -----------------------------------------------------------------
                    Cartesian Multipole Moments
 -----------------------------------------------------------------
    Charge (ESU x 10^10)
                -4.8032
    Dipole Moment (Debye)
         X      22.2142      Y      -2.4097      Z       0.2493
       Tot      22.3459
    Quadrupole Moments (Debye-Ang)
        XX    -314.3687     XY      14.3381     YY    -187.8430
        XZ      -2.1514     YZ       0.6056     ZZ    -186.0559
    Octopole Moments (Debye-Ang^2)
       XXX     813.0017    XXY     -89.0085    XYY      77.0564
       YYY     -26.5081    XXZ      17.8123    XYZ      -0.1492
       YYZ       5.0164    XZZ      67.4374    YZZ      -4.9829
       ZZZ      -3.4414
    Hexadecapole Moments (Debye-Ang^3)
      XXXX  -18199.8193   XXXY     561.9941   XXYY   -2908.7362
      XYYY     186.0033   YYYY   -1993.8126   XXXZ     -71.5584
      XXYZ      15.6722   XYYZ     -20.3231   YYYZ      20.7279
      XXZZ   -2689.9793   XYZZ      50.6990   YYZZ    -509.4432
      XZZZ      48.8629   YZZZ      11.5389   ZZZZ   -1085.4029
 -----------------------------------------------------------------
 Calculating analytic gradient of the SCF energy
 Gradient of SCF Energy
            1           2           3           4           5           6
    1  -0.0000210  -0.0000127   0.0000020   0.0000555  -0.0000346   0.0000142
    2   0.0000069  -0.0000002  -0.0000298   0.0000221  -0.0000096  -0.0000221
    3   0.0000531   0.0000088   0.0000036  -0.0000227  -0.0000013  -0.0000436
            7           8           9          10          11          12
    1  -0.0000348   0.0000156  -0.0000060   0.0000083   0.0000063  -0.0000380
    2  -0.0000077  -0.0000039  -0.0000143   0.0000238  -0.0000044   0.0000051
    3  -0.0000302   0.0000343  -0.0000002  -0.0000135  -0.0000201   0.0000222
           13          14          15          16          17          18
    1   0.0000107  -0.0000167   0.0000150  -0.0000010   0.0000342   0.0000268
    2   0.0000005  -0.0000055   0.0000258   0.0000458   0.0000002  -0.0000197
    3  -0.0000158   0.0000054   0.0000479   0.0000142  -0.0000007   0.0000001
           19          20          21          22          23          24
    1   0.0000207  -0.0000074  -0.0000233  -0.0000158   0.0000481   0.0000037
    2  -0.0000067   0.0000228  -0.0000008  -0.0000080   0.0000012  -0.0000092
    3   0.0000689   0.0000136  -0.0000060  -0.0000199  -0.0000064   0.0000357
           25          26          27          28          29          30
    1  -0.0000002   0.0000162   0.0000076  -0.0000308  -0.0000131  -0.0000184
    2  -0.0000051   0.0000020  -0.0000089   0.0000179   0.0000016  -0.0000020
    3  -0.0000002  -0.0000328  -0.0000875  -0.0000412   0.0000210  -0.0000026
           31
    1  -0.0000110
    2  -0.0000177
    3   0.0000157
 Max gradient component =       8.749E-05
 RMS gradient           =       2.382E-05
 Gradient time:  CPU 15053.43 s  wall 482.75 s

     Step 11	:
        Energy is -2777.5020475030
                            Maximum         Tolerance       Converged?
         Gradient           6.94576306e-05	3.00000000e-04	true
         Displacement       1.56219945e-03	1.20000000e-03	false
         Energy change      2.36402229e-07	1.00000000e-06	true

	 Optimization Converged in 11 cycles

 *****************************************************
             End of BFGS Algorithm
 *****************************************************
		----------------------------------
		   Verification of Optimization
		----------------------------------

 Eigenvalues of Hessian in Optimization Verification
   0.00169760   0.00183485   0.00215700   0.00307377   0.00355676
   0.00566635   0.00654238   0.01345181   0.01754726   0.02136706
   0.04877817   0.05279407   0.05440286   0.06865167   0.07215519
   0.07342067   0.07846627   0.08099052   0.08324174   0.08474506
   0.08512670   0.08606151   0.08686083   0.08796464   0.08900117
   0.09692810   0.10220595   0.10823097   0.10957334   0.11467767
   0.13576779   0.17107561   0.17427155   0.17633651   0.17969782
   0.19524536   0.20172634   0.20622878   0.21053776   0.21210082
   0.22409900   0.23199451   0.24622430   0.24686003   0.24726233
   0.24899605   0.24959451   0.25000000   0.25000000   0.25000000
   0.25000000   0.25000000   0.25728216   0.25856780   0.26549262
   0.27057381   0.27545843   0.27720432   0.28082132   0.32127102
   0.37089569   0.37681108   0.41951007   0.43676345   0.45589906
   0.47512203   0.50142752   0.50512865   0.52159245   0.52529036
   0.52909353   0.54574324   0.54598220   0.55138945   0.55928560
   0.56362898   0.56444220   0.56733707   0.57174422   0.57314947
   0.57768995   0.58083644   0.58255449   0.58799596   0.74751807
   0.83787986   0.84297876

 Found a minimum
		---------------------------------
		       End of Verification
		---------------------------------

 Final energy is -2777.502047503035

	******************************
	**  OPTIMIZATION CONVERGED  **
	******************************
 ----------------------------------------------------------------
             Standard Nuclear Orientation (Angstroms)
    I     Atom           X                Y                Z
 ----------------------------------------------------------------
    1      C       3.9790701315     1.5078280366     0.7287728605
    2      F       3.1280326049     2.5231059540     0.8696448647
    3      F       4.1370996102     0.9113739493     1.9126038700
    4      C       3.4188727198     0.5056602032    -0.3351899035
    5      O       2.2191454430    -0.0030908821     0.1512719920
    6      C       1.0042121616     0.1996071389    -0.4838971641
    7      C      -0.1273724389    -0.4687685565     0.3873931718
    8      F       0.0475812470    -0.0142985814     1.6676255696
    9      F       5.1625101824     1.9997262325     0.3382676013
   10      C       4.3610274673    -0.7095720614    -0.6267157520
   11      F       4.5699620322    -1.4335055740     0.4751599662
   12      F       3.2939200694     1.1916437340    -1.4987649134
   13      F       3.7982952471    -1.4887759008    -1.5512028932
   14      F       5.5447604994    -0.2920065948    -1.0929998102
   15      F       1.0125136927    -0.3292077519    -1.7221142869
   16      F       0.7473908346     1.5097661415    -0.6011163356
   17      O      -1.2780193238    -0.0095359144    -0.1875286075
   18      C      -2.5968652192    -0.3053798222     0.2490316067
   19      C      -0.0037632861    -2.0350925619     0.4645210990
   20      C      -3.5181658206     0.7973531927    -0.3435385308
   21      F      -2.9378522231    -1.5221206678    -0.1978595151
   22      F      -2.6451347273    -0.3192666347     1.5849083479
   23      S      -5.3985243906     0.5745329545    -0.0638850695
   24      F      -3.1087670978     1.9704559414     0.2065674000
   25      F      -3.2632549877     0.8576594184    -1.6765499589
   26      F      -0.8525561384    -2.5241294231     1.3676652154
   27      F      -0.2564723816    -2.5972283905    -0.7190612076
   28      F       1.2359827042    -2.3987593670     0.8387683204
   29      O      -5.9104669431     1.8478034538    -0.5753678619
   30      O      -5.7110225529    -0.6056276111    -0.8736563632
   31      O      -5.4883107975     0.3881947919     1.3873370203
 ----------------------------------------------------------------
 Molecular Point Group                 C1    NOp =  1
 Largest Abelian Subgroup              C1    NOp =  1
 Nuclear Repulsion Energy =        4346.39802882 hartrees
 There are      129 alpha and      129 beta electrons

Z-matrix Print:
$molecule
-1 1
S 
O  1 1.464554
O  1 1.464979 2 115.642677
O  1 1.465888 2 115.775781 3 -139.786881 0
C  1 1.914054 2 101.020921 3 110.183247 0
F  5 1.358505 1 109.442985 2 -65.806341 0
F  5 1.358821 1 109.714789 2 52.042054 0
C  5 1.554334 1 116.359692 2 172.639648 0
F  8 1.336821 5 111.526765 1 -65.503905 0
F  8 1.340314 5 111.477653 1 55.734012 0
O  8 1.420374 5 106.583742 1 174.363698 0
C  11 1.365803 8 125.650378 5 160.044707 0
F  12 1.369725 11 112.922368 8 -64.128869 0
C  12 1.573086 11 114.937462 8 57.560632 0
F  14 1.332395 12 110.403858 11 -71.124597 0
F  14 1.334438 12 111.166197 11 50.003792 0
F  14 1.345097 12 110.809836 11 169.992761 0
C  12 1.576819 11 103.265832 8 -178.753686 0
F  18 1.340229 12 108.976281 11 49.188166 0
F  18 1.346438 12 110.248743 11 -68.863811 0
O  18 1.385853 12 108.293263 11 169.497660 0
C  21 1.390977 18 122.843656 12 -177.632410 0
F  22 1.356500 21 113.922407 18 -1.310805 0
C  22 1.565066 21 107.479750 18 -119.371123 0
F  24 1.333605 22 109.195370 21 61.199484 0
F  24 1.334865 22 111.196537 21 -58.802481 0
F  24 1.339032 22 110.787319 21 -179.617301 0
C  22 1.565305 21 107.765990 18 117.234434 0
F  28 1.332253 22 109.339700 21 -62.833766 0
F  28 1.334986 22 111.043058 21 57.235785 0
F  28 1.339772 22 110.675219 21 177.852956 0
$end

 -----------------------------------------------------------------------
                  END OF GEOMETRY OPTIMIZER USING LIBOPT3               
 -----------------------------------------------------------------------
 Total job time:  15410.45s(wall), 511023.66s(cpu) 
 Sat Apr 26 08:01:41 2025

        *************************************************************
        *                                                           *
        *  Thank you very much for using Q-Chem.  Have a nice day.  *
        *                                                           *
        *************************************************************


