
Running Job 1 of 1 input.com
qchem input.com_3112979.0 /tmp/scratch/8664547/qchem3112979/ 1
/nopt/nrel/apps/software/q-chem/6.2-bq/exe/qcprog.exe_s input.com_3112979.0 /tmp/scratch/8664547/qchem3112979/
                  Welcome to Q-Chem
     A Quantum Leap Into The Future Of Chemistry


 Q-Chem 6.2, Q-Chem, Inc., Pleasanton, CA (2024)

 License issued to: National Renewable Energy Laboratory (site)

 E. Epifanovsky,  A. T. B. Gilbert,  Xintian Feng,  Joonho Lee,  Yuezhi Mao,  
 N. Mardirossian,  P. Pokhilko,  A. White,  M. Wormit,  M. P. Coons,  
 A. L. Dempwolff,  Zhengting Gan,  D. Hait,  P. R. Horn,  L. D. Jacobson,  
 I. Kaliman,  J. Kussmann,  A. W. Lange,  Ka Un Lao,  D. S. Levine,  Jie Liu,  
 S. C. McKenzie,  A. F. Morrison,  K. D. Nanda,  F. Plasser,  D. R. Rehn,  
 M. L. Vidal,  Zhi-Qiang You,  Ying Zhu,  Huseyin Aksu,  B. Alam,  
 B. Albrecht,  A. Aldossary,  E. Alguire,  J. H. Andersen,  
 J. E. Arias-Martinez,  V. Athavale,  D. Barton,  K. Begam,  A. Behn,  
 N. Bellonzi,  Y. A. Bernard,  E. J. Berquist,  H. Burton,  A. Carreras,  
 K. Carter-Fenk,  Mathew Chow,  Romit Chakraborty,  Chandrima Chakravarty,  
 Junhan Chen,  A. D. Chien,  K. D. Closser,  V. Cofer-Shabica,  L. Cunha,  
 S. Dasgupta,  Jia Deng,  Joseph Dickinson,  M. de Wergifosse,  
 M. Diedenhofen,  Hainam Do,  Wenjie Dou,  S. Ehlert,  Po-Tung Fang,  
 S. Fatehi,  Qingguo Feng,  Jonathan Fetherolf,  T. Friedhoff,  
 Thomas Froitzheim,  Sarai Folkestad,  B. Ganoe,  J. Gayvert,  Qinghui Ge,  
 G. Gidofalvi,  M. Gimferrer,  M. Goldey,  Montgomery Gray,  J. Gomes,  
 C. Gonzalez-Espinoza,  S. Gulania,  A. Gunina,  J. A. Gyamfi,  
 M. W. D. Hanson-Heine,  P. H. P. Harbach,  A. W. Hauser,  M. F. Herbst,  
 M. Hernandez Vera,  M. Hodecker,  Z. C. Holden,  S. Houck,  Xunkun Huang,  
 Kerwin Hui,  B. C. Huynh,  K. Ikeda,  M. Ivanov,  Nayanthara K. Jayadev,  
 Hyunjun Ji,  Zuxin Jin,  Hanjie Jiang,  Subrata Jana,  B. Kaduk,  
 S. Kaehler,  R. Kang,  K. Khistyaev,  Jaehoon Kim,  Yongbin Kim,  
 P. Klunzinger,  Z. Koczor-Benda,  Joong Hoon Koh,  D. Kosenkov,  
 Saikiran Kotaru,  L. Koulias,  T. Kowalczyk,  C. M. Krauter,  K. Kue,  
 A. Kunitsa,  T. Kus,  A. Landau,  K. V. Lawler,  D. Lefrancois,  S. Lehtola,  
 Rain Li,  Shaozhi Li,  Tao E. Li,  Yi-Pei Li,  Jiashu Liang,  M. Liebenthal,  
 Hung-Hsuan Lin,  You-Sheng Lin,  Fenglai Liu,  Kuan-Yu Liu,  Xiao Liu,  
 M. Loipersberger,  A. Luenser,  C. Malbon,  Aniket Mandal,  Manisha,  
 A. Manjanath,  P. Manohar,  E. Mansoor,  S. F. Manzer,  Shan-Ping Mao,  
 A. V. Marenich,  T. Markovich,  S. Mason,  F. Matz,  S. A. Maurer,  
 Samuel May,  Alexandra McIsaac,  P. F. McLaughlin,  M. F. S. J. Menger,  
 J.-M. Mewes,  S. A. Mewes,  P. Morgante,  Mohammad Mostafanejad,  
 Madhubani Mukherjee,  J. W. Mullinax,  Quyen Nguyen,  Avik Kumar Ojha,  
 K. J. Oosterbaan,  Eno Paenurk,  Xiaoliang Pan,  G. Paran,  V. Parravicini,  
 Alexander C. Paul,  Suranjan K. Paul,  F. Pavosevic,  Zheng Pei,  S. Prager,  
 E. I. Proynov,  E. Ramos,  B. Rana,  A. E. Rask,  A. Rettig,  R. M. Richard,  
 F. Rob,  E. Rossomme,  T. Scheele,  M. Scheurer,  M. Schneider,  
 P. E. Schneider,  Tim K. Schramm,  N. Sergueev,  S. M. Sharada,  
 Hengyuan Shen,  W. Skomorowski,  D. W. Small,  C. J. Stein,  
 Alistair J. Sterling,  Yingli Su,  Yu-Chuan Su,  E. J. Sundstrom,  
 J. Talbot,  Zhen Tao,  J. Thirman,  Hung-Yi Tsai,  T. Tsuchimochi,  
 N. M. Tubman,  C. Utku,  S. P. Veccham,  O. Vydrov,  Rahel Weiss,  
 J. Wenzel,  Jonathan Wong,  J. Witte,  H. Wu,  Yanze Wu,  A. Yamada,  
 Chou-Hsun Yang,  Kun Yao,  S. Yeganeh,  S. R. Yost,  Qi Yu,  A. Zech,  
 F. Zeller,  Chongxiao Zhao,  Igor Ying Zhang,  Xing Zhang,  Yu Zhang,  
 D. Zuev,  A. Aspuru-Guzik,  A. T. Bell,  N. A. Besley,  K. B. Bravaya,  
 B. R. Brooks,  D. Casanova,  Jeng-Da Chai,  Hsing-Ta Chen,  S. Coriani,  
 C. J. Cramer,  A. E. DePrince, III,  R. A. DiStasio Jr.,  A. Dreuw,  
 B. D. Dunietz,  T. R. Furlani,  W. A. Goddard III,  S. Grimme,  
 S. Hammes-Schiffer,  T. Head-Gordon,  W. J. Hehre,  Chao-Ping Hsu,  
 T.-C. Jagau,  Yousung Jung,  A. Klamt,  Jing Kong,  D. S. Lambrecht,  
 Xiangyuan Li,  WanZhen Liang,  N. J. Mayhall,  C. W. McCurdy,  J. B. Neaton,  
 T. Neudecker,  C. Ochsenfeld,  J. A. Parkhill,  R. Peverati,  
 V. A. Rassolov,  Haisheng Ren,  Yihan Shao,  L. V. Slipchenko,  
 R. P. Steele,  J. E. Subotnik,  A. J. W. Thom,  A. Tkatchenko,  
 D. G. Truhlar,  T. Van Voorhis,  Fan Wang,  T. A. Wesolowski,  K. B. Whaley,  
 H. L. Woodcock III,  P. M. Zimmerman,  S. Faraji,  P. M. W. Gill,  
 M. Head-Gordon,  J. M. Herbert,  A. I. Krylov

 Contributors to earlier versions of Q-Chem not listed above: 
 R. D. Adamson,  B. Austin,  R. Baer,  J. Baker,  G. J. O. Beran,  
 K. Brandhorst,  S. T. Brown,  E. F. C. Byrd,  Arup K. Chakraborty,  
 G. K. L. Chan,  Chun-Min Chang,  Yunqing Chen,  C.-L. Cheng,  
 Siu Hung Chien,  D. M. Chipman,  D. L. Crittenden,  H. Dachsel,  
 R. J. Doerksen,  A. D. Dutoi,  R. G. Edgar,  J. Fosso-Tande,  
 L. Fusti-Molnar,  D. Ghosh,  A. Ghysels,  A. Golubeva-Zadorozhnaya,  
 J. Gonthier,  M. S. Gordon,  S. R. Gwaltney,  G. Hawkins,  J. E. Herr,  
 A. Heyden,  S. Hirata,  E. G. Hohenstein,  G. Kedziora,  F. J. Keil,  
 C. Kelley,  Jihan Kim,  R. A. King,  R. Z. Khaliullin,  P. P. Korambath,  
 W. Kurlancheek,  A. Laurent,  A. M. Lee,  M. S. Lee,  S. V. Levchenko,  
 Ching Yeh Lin,  D. Liotard,  E. Livshits,  R. C. Lochan,  I. Lotan,  
 L. A. Martinez-Martinez,  P. E. Maslen,  N. Nair,  D. P. O'Neill,  
 D. Neuhauser,  E. Neuscamman,  C. M. Oana,  R. Olivares-Amaya,  R. Olson,  
 T. M. Perrine,  B. Peters,  P. A. Pieniazek,  A. Prociuk,  Y. M. Rhee,  
 J. Ritchie,  M. A. Rohrdanz,  E. Rosta,  N. J. Russ,  H. F. Schaefer III,  
 M. W. Schmidt,  N. E. Schultz,  S. Sharma,  N. Shenvi,  C. D. Sherrill,  
 A. C. Simmonett,  A. Sodt,  T. Stein,  D. Stuck,  K. S. Thanthiriwatte,  
 V. Vanovschi,  L. Vogt,  Tao Wang,  A. Warshel,  M. A. Watson,  
 C. F. Williams,  Q. Wu,  X. Xu,  Jun Yang,  W. Zhang,  Yan Zhao

   Please cite Q-Chem as follows:
  "Software for the frontiers of quantum chemistry:
   An overview of developments in the Q-Chem 5 package"
   J. Chem. Phys. 155, 084801 (2021)
   https://doi.org/10.1063/5.0055522 (open access)

 Q-Chem 6.2.0 for Intel X86 EM64T Linux

 Parts of Q-Chem use Armadillo 9.900.5 (Nocturnal Misbehaviour).
 http://arma.sourceforge.net/

 Q-Chem begins on Mon Apr 28 05:15:41 2025  

 Host: 
0

     Scratch files written to /tmp/scratch/8664547/qchem3112979//
 May324 |scratch|qcdevops|jenkins|workspace|build_RNUM -1
 Processing $rem in /nopt/nrel/apps/software/q-chem/6.2-bq/config/preferences:
 Processing $rem in /home/hlong/.qchemrc:

 Checking the input file for inconsistencies... 	...done.
 tid: 0x0 [2025.04.28-05:15:42.316] [INFO] Begin brianAPIInit
 tid: 0x0 [2025.04.28-05:15:42.317] [INFO] Detected compatible BrianQC interface version 5
 tid: 0x0 [2025.04.28-05:15:42.318] [INFO] Reading config from /nopt/nrel/apps/software/q-chem/6.2-bq/brianqc_qchem/config.json
 tid: 0x0 [2025.04.28-05:15:42.319] [INFO] Setting Brian root dir to /nopt/nrel/apps/software/q-chem/6.2-bq/brianqc_qchem
 tid: 0x0 [2025.04.28-05:15:42.320] [INFO] Found kernel DB in config: /nopt/nrel/apps/software/q-chem/6.2-bq/brianqc_qchem/integrators/6336139264-1715983310_kernel_g_v1_5_0_96dfbcf834_CUDA_Tesla_H100.db
 tid: 0x0 [2025.04.28-05:15:42.320] [INFO] Found DFT DB in config: /nopt/nrel/apps/software/q-chem/6.2-bq/brianqc_qchem/integrators/13385728-1716812277_dft_kernel_v1_5_0_c0ea4e0e4a_CUDA_Tesla_H100.db
 tid: 0x0 [2025.04.28-05:15:42.320] [INFO] No MM DBs specified in config, using the default: /nopt/nrel/apps/software/q-chem/6.2-bq/brianqc_qchem/integrators/mm.db
 tid: 0x0 [2025.04.28-05:15:42.320] [WARNING] MM features will not be available, because the MM DB does not exist: /nopt/nrel/apps/software/q-chem/6.2-bq/brianqc_qchem/integrators/mm.db
 tid: 0x0 [2025.04.28-05:15:42.320] [INFO] Start BrianQC module initialization
 tid: 0x0 [2025.04.28-05:15:42.349] [INFO] GPU 0# NVIDIA_H100_80GB_HBM3_GPU-e5172eda-9fd6-954e-0d21-31b1afb358f1
 tid: 0x0 [2025.04.28-05:15:42.355] [SYSTEM] BrianQC version: v1_5_0_5a135bfd07 licensed to: Hai Long
 tid: 0x0 [2025.04.28-05:15:42.362] [SYSTEM] Visit us at: https://brianqc.com
 tid: 0x0 [2025.04.28-05:15:42.373] [SYSTEM] BrianQC copyright Streamnovation Ltd. 2013-2022
 tid: 0x0 [2025.04.28-05:15:42.382] [SYSTEM] Contributors: Gy. Cserey, B. Czetenyi, A. Jasz, G. Kis, I. Ladjanszki, A. Rak, G. J. Tornai, A. Vas
 tid: 0x0 [2025.04.28-05:15:42.451] [INFO] Signing in to license server: license.brainqc.com 443
 tid: 0x0 [2025.04.28-05:15:46.359] [ERROR] License server denied login: Internal server error
 tid: 0x0 [2025.04.28-05:15:46.373] [WARNING] Retrying login
 tid: 0x0 [2025.04.28-05:15:50.189] [INFO] Started license watchdog on pid 3113851
 tid: 0x0 [2025.04.28-05:15:50.189] [INFO] Scratch dir is disabled, storing everything in memory
 tid: 0x0 [2025.04.28-05:15:51.411] [INFO] Detected device: CPU
 tid: 0x0 [2025.04.28-05:15:51.411] [INFO] Detected device: CUDA NVIDIA H100 80GB HBM3#0000:E4:00.0
 tid: 0x0 [2025.04.28-05:15:51.414] [INFO] Allocating 3 threads for GPU: CUDA NVIDIA H100 80GB HBM3#0000:E4:00.0 on node 0
 tid: 0x0 [2025.04.28-05:15:55.958] [INFO] Used GPU count: 1
 tid: 0x0 [2025.04.28-05:15:57.294] [INFO] End BrianQC module initialization
 tid: 0x0 [2025.04.28-05:15:57.302] [INFO] End brianAPIInit
 tid: 0x0 [2025.04.28-05:15:57.302] [INFO] Running preliminary BrianQC license check...
 tid: 0x0 [2025.04.28-05:15:57.303] [INFO] Preliminary BrianQC license check passed

--------------------------------------------------------------
User input:
--------------------------------------------------------------
$molecule
-1 1
C          4.11643       -1.48041       -0.71113
F          3.39409       -2.59960       -0.81726
F          4.22860       -0.91587       -1.91896
C          3.42207       -0.51789        0.28967
O          2.19271       -0.17339       -0.26905
C          1.01327       -0.29967        0.45351
C         -0.13361        0.37168       -0.37411
F          0.01715       -0.04365       -1.67355
F          5.34489       -1.80262       -0.27209
C          4.22273        0.78391        0.56775
F          4.46092        1.43773       -0.57729
F          3.31939       -1.18796        1.47185
F          3.52926        1.58045        1.38565
F          5.39884        0.49440        1.14858
F          1.10896        0.29403        1.66422
F          0.73814       -1.59933        0.65313
O         -1.28286       -0.10001        0.20694
C         -2.58410        0.27338       -0.22864
C         -0.00545        1.92942       -0.40146
C         -3.56377       -0.78378        0.32897
F         -2.86180        1.50249        0.24397
F         -2.61581        0.32085       -1.56915
S         -5.40120       -0.42965        0.07649
F         -3.22844       -1.95967       -0.27102
F         -3.29595       -0.90240        1.65906
F         -0.81928        2.44862       -1.32551
F         -0.30038        2.45428        0.79272
F          1.25554        2.29549       -0.71642
O         -6.01000       -1.70152        0.51923
O         -5.62749        0.73480        0.95974
O         -5.46900       -0.15244       -1.37593
$end

$rem
job_type=opt
basis=6-31G*
method=b3lyp
$end
--------------------------------------------------------------
 ----------------------------------------------------------------
             Standard Nuclear Orientation (Angstroms)
    I     Atom           X                Y                Z
 ----------------------------------------------------------------
    1      C       4.1164293037     1.4804112804     0.7111283217
    2      F       3.3940892428     2.5996013103     0.8172575923
    3      F       4.2285995215     0.9158721909     1.9189587271
    4      C       3.4220692212     0.5178904848    -0.2896708558
    5      O       2.1927093276     0.1733908182     0.2690495840
    6      C       1.0132692118     0.2996701973    -0.4535103354
    7      C      -0.1336106194    -0.3716792626     0.3741103366
    8      F       0.0171495449     0.0436517190     1.6735500037
    9      F       5.3448892165     1.8026210364     0.2720878986
   10      C       4.2227292691    -0.7839096682    -0.5677500015
   11      F       4.4609194837    -1.4377287960     0.5772904519
   12      F       3.3193889999     1.1879595941    -1.4718513415
   13      F       3.5292592023    -1.5804503271    -1.3856493033
   14      F       5.3988391631    -0.4944000218    -1.1485803924
   15      F       1.1089590729    -0.2940307011    -1.6642199058
   16      F       0.7381390932     1.5993300293    -0.6531312660
   17      O      -1.2828607379     0.1000102244    -0.2069398455
   18      C      -2.5841006477    -0.2733795392     0.2286406266
   19      C      -0.0054505087    -1.9294192334     0.4014614819
   20      C      -3.5637708029     0.7837799769    -0.3289700183
   21      F      -2.8618006337    -1.5024899114    -0.2439684135
   22      F      -2.6158104456    -0.3208485393     1.5691506668
   23      S      -5.4012007412     0.4296500398    -0.0764894810
   24      F      -3.2284407944     1.9596704484     0.2710190530
   25      F      -3.2959510083     0.9023990011    -1.6590601467
   26      F      -0.8192803361    -2.4486185984     1.3255119907
   27      F      -0.3003806499    -2.4542801462    -0.7927180820
   28      F       1.2555395631    -2.2954889116     0.7164215685
   29      O      -6.0100008940     1.7015196672    -0.5192303414
   30      O      -5.6274907924    -0.7348006359    -0.9597385771
   31      O      -5.4690005067     0.1524411208     1.3759307362
 ----------------------------------------------------------------
 Molecular Point Group                 C1    NOp =  1
 Largest Abelian Subgroup              C1    NOp =  1
 Nuclear Repulsion Energy =        4364.44217231 hartrees
 There are      129 alpha and      129 beta electrons
 Requested basis set is 6-31G(d)
 There are 125 shells and 469 basis functions

 Total QAlloc Memory Limit 318000 MB
 Mega-Array Size       188 MB
 MEM_STATIC part       192 MB

 -----------------------------------------------------------------------
                STARTING GEOMETRY OPTIMIZER USING LIBOPT3
                by Peter F. McLaughlin, Yu Zhang, Evgeny Epifanovsky
 -----------------------------------------------------------------------

              Initial Energy and Gradient Calculation
   -- Checking Topology for Ill-Behaving Coordinates --

 -------------------------------------------
   Coordinate       |  Removed | Additions 
 -------------------------------------------
	Bonds                     0          0
	Angles                    0          0
	Torsions                  0          0
	Co-Linear Type5s          0          0
	Co-Linear Type6s          0          0
 -------------------------------------------
     Done Checking Topology
 ----------------------------------------------------------------
             Standard Nuclear Orientation (Angstroms)
    I     Atom           X                Y                Z
 ----------------------------------------------------------------
    1      C       4.1164293037     1.4804112804     0.7111283217
    2      F       3.3940892428     2.5996013103     0.8172575923
    3      F       4.2285995215     0.9158721909     1.9189587271
    4      C       3.4220692212     0.5178904848    -0.2896708558
    5      O       2.1927093276     0.1733908182     0.2690495840
    6      C       1.0132692118     0.2996701973    -0.4535103354
    7      C      -0.1336106194    -0.3716792626     0.3741103366
    8      F       0.0171495449     0.0436517190     1.6735500037
    9      F       5.3448892165     1.8026210364     0.2720878986
   10      C       4.2227292691    -0.7839096682    -0.5677500015
   11      F       4.4609194837    -1.4377287960     0.5772904519
   12      F       3.3193889999     1.1879595941    -1.4718513415
   13      F       3.5292592023    -1.5804503271    -1.3856493033
   14      F       5.3988391631    -0.4944000218    -1.1485803924
   15      F       1.1089590729    -0.2940307011    -1.6642199058
   16      F       0.7381390932     1.5993300293    -0.6531312660
   17      O      -1.2828607379     0.1000102244    -0.2069398455
   18      C      -2.5841006477    -0.2733795392     0.2286406266
   19      C      -0.0054505087    -1.9294192334     0.4014614819
   20      C      -3.5637708029     0.7837799769    -0.3289700183
   21      F      -2.8618006337    -1.5024899114    -0.2439684135
   22      F      -2.6158104456    -0.3208485393     1.5691506668
   23      S      -5.4012007412     0.4296500398    -0.0764894810
   24      F      -3.2284407944     1.9596704484     0.2710190530
   25      F      -3.2959510083     0.9023990011    -1.6590601467
   26      F      -0.8192803361    -2.4486185984     1.3255119907
   27      F      -0.3003806499    -2.4542801462    -0.7927180820
   28      F       1.2555395631    -2.2954889116     0.7164215685
   29      O      -6.0100008940     1.7015196672    -0.5192303414
   30      O      -5.6274907924    -0.7348006359    -0.9597385771
   31      O      -5.4690005067     0.1524411208     1.3759307362
 ----------------------------------------------------------------
 Molecular Point Group                 C1    NOp =  1
 Largest Abelian Subgroup              C1    NOp =  1
 Nuclear Repulsion Energy =        4364.44217231 hartrees
 There are      129 alpha and      129 beta electrons
 Requested basis set is 6-31G(d)
 There are 125 shells and 469 basis functions
 A cutoff of  1.0D-12 yielded   4002 shell pairs
 There are     63725 function pairs
 Smallest overlap matrix eigenvalue = 1.28E-03

 Scale SEOQF with 1.000000e-02/1.000000e-01/1.000000e-01

 Standard Electronic Orientation quadrupole field applied
 Nucleus-field energy     =     0.0000000181 hartrees
 Guess from superposition of atomic densities
 Warning:  Energy on first SCF cycle will be non-variational
 SAD guess density has 257.000000 electrons

 -----------------------------------------------------------------------
  General SCF calculation program by
  Eric Jon Sundstrom, Paul Horn, Yuezhi Mao, Dmitri Zuev, Alec White,
  David Stuck, Shaama M.S., Shane Yost, Joonho Lee, David Small,
  Daniel Levine, Susi Lehtola, Hugh Burton, Evgeny Epifanovsky,
  Bang C. Huynh
 -----------------------------------------------------------------------
 Exchange:     0.2000 Hartree-Fock + 0.0800 Slater + 0.7200 B88
 Correlation:  0.1900 VWN1RPA + 0.8100 LYP
 Using SG-1 standard quadrature grid
 tid: 0x0 [2025.04.28-05:15:58.214] [INFO] Re-init GPU for small molecule mode
 tid: 0x0 [2025.04.28-05:15:58.344] [INFO] Detected device: CPU
 tid: 0x0 [2025.04.28-05:15:58.344] [INFO] Detected device: CUDA NVIDIA H100 80GB HBM3#0000:E4:00.0
 tid: 0x0 [2025.04.28-05:15:58.347] [INFO] Allocating 1 threads for GPU: CUDA NVIDIA H100 80GB HBM3#0000:E4:00.0 on node 0
 tid: 0x0 [2025.04.28-05:15:58.347] [INFO] Used GPU count: 1
 ---- BrianQC HCore successfully initialized ---- 
 ---- BrianQC J/K successfully initialized ---- 
 ---- BrianQC XC successfully initialized ---- 
BrianQC JK build time 0.0000000000 (s)
BrianQC XC build time 0.0000000000 (s)
 A restricted SCF calculation will be
 performed using DIIS
 SCF converges when DIIS error is below 1.0e-08
 ---------------------------------------
  Cycle       Energy         DIIS error
 ---------------------------------------
BrianQC JK build time 0.0e+00 (s)
BrianQC XC build time 1.0e+00 (s)
    1   -2781.9993543427      3.39e-02  
BrianQC JK build time 1.00e+00 (s)
BrianQC XC build time 0.00e+00 (s)
    2   -2775.6552754229      6.31e-03  
BrianQC JK build time 1.00e+00 (s)
BrianQC XC build time 0.00e+00 (s)
    3   -2771.8910994328      1.30e-02  
BrianQC JK build time 0.00e+00 (s)
BrianQC XC build time 1.00e+00 (s)
    4   -2776.2978571080      2.34e-03  
BrianQC JK build time 0.00e+00 (s)
BrianQC XC build time 1.00e+00 (s)
    5   -2776.4217714041      5.71e-04  
BrianQC JK build time 0.00e+00 (s)
BrianQC XC build time 0.00e+00 (s)
    6   -2776.4275292124      4.11e-04  
BrianQC JK build time 0.00e+00 (s)
BrianQC XC build time 1.00e+00 (s)
    7   -2776.4307129651      1.22e-04  
BrianQC JK build time 1.00e+00 (s)
BrianQC XC build time 0.00e+00 (s)
    8   -2776.4309640304      5.83e-05  
BrianQC JK build time 1.00e+00 (s)
BrianQC XC build time 0.00e+00 (s)
    9   -2776.4310292270      1.71e-05  
BrianQC JK build time 1.00e+00 (s)
BrianQC XC build time 0.00e+00 (s)
   10   -2776.4310352748      4.27e-06  
BrianQC JK build time 0.00e+00 (s)
BrianQC XC build time 1.00e+00 (s)
   11   -2776.4310355690      1.46e-06  
BrianQC JK build time 1.00e+00 (s)
BrianQC XC build time 0.00e+00 (s)
   12   -2776.4310355753      4.15e-07  
BrianQC JK build time 0.00e+00 (s)
BrianQC XC build time 0.00e+00 (s)
   13   -2776.4310355817      1.15e-07  
BrianQC JK build time 0.00e+00 (s)
BrianQC XC build time 1.00e+00 (s)
   14   -2776.4310355840      6.20e-08  
BrianQC JK build time 0.00e+00 (s)
BrianQC XC build time 0.00e+00 (s)
   15   -2776.4310355842      1.51e-08  
   16   -2776.4310355839      5.88e-09  Convergence criterion met
 ---------------------------------------
 SCF time:   CPU 771.20s  wall 36.00s 
 SCF   energy = -2776.43103558
 Total energy = -2776.43103558
 
 --------------------------------------------------------------
 
                    Orbital Energies (a.u.)
 --------------------------------------------------------------
 
 Alpha MOs
 -- Occupied --
-88.9418 -24.6990 -24.6981 -24.6978 -24.6978 -24.6971 -24.6967 -24.6939
-24.6740 -24.6697 -24.6687 -24.6669 -24.6668 -24.6479 -24.6259 -24.6241
-24.5915 -24.5913 -19.1713 -19.1295 -18.9628 -18.9620 -18.9617 -10.4087
-10.4081 -10.3787 -10.3749 -10.3361 -10.3217 -10.3027 -10.2354  -7.9630
 -5.9281  -5.9271  -5.9271  -1.2838  -1.2763  -1.2505  -1.2348  -1.2111
 -1.1926  -1.1910  -1.1894  -1.1884  -1.1882  -1.1685  -1.1610  -1.1595
 -1.1586  -1.1340  -1.1168  -1.0762  -1.0571  -1.0122  -0.9458  -0.8124
 -0.8115  -0.7861  -0.7362  -0.6819  -0.6649  -0.6597  -0.6208  -0.5974
 -0.5811  -0.5764  -0.5683  -0.5621  -0.5534  -0.5480  -0.5432  -0.5365
 -0.5329  -0.5298  -0.5274  -0.5111  -0.5061  -0.4949  -0.4748  -0.4702
 -0.4509  -0.4469  -0.4339  -0.4302  -0.4243  -0.4236  -0.4217  -0.4180
 -0.4157  -0.4035  -0.4022  -0.3976  -0.3961  -0.3933  -0.3923  -0.3858
 -0.3818  -0.3794  -0.3754  -0.3721  -0.3709  -0.3685  -0.3661  -0.3649
 -0.3623  -0.3511  -0.3481  -0.3421  -0.3415  -0.3363  -0.3346  -0.3250
 -0.3191  -0.3144  -0.3021  -0.2978  -0.2841  -0.2828  -0.2817  -0.2773
 -0.2749  -0.2571  -0.2499  -0.1681  -0.1677  -0.1382  -0.1362  -0.1283
 -0.0906
 -- Virtual --
  0.0969   0.1130   0.1399   0.1567   0.1978   0.2042   0.2111   0.2127
  0.2289   0.2366   0.2400   0.2466   0.2540   0.2586   0.2668   0.2720
  0.2773   0.2886   0.2991   0.3038   0.3077   0.3167   0.3229   0.3273
  0.3394   0.3600   0.3824   0.3887   0.4129   0.4277   0.4772   0.4834
  0.4910   0.5028   0.5132   0.5242   0.5312   0.5436   0.5514   0.5572
  0.5600   0.5750   0.5801   0.5996   0.6109   0.6164   0.6565   0.6663
  0.6683   0.6811   0.6902   0.6959   0.7014   0.7275   0.7405   0.7641
  0.7732   0.7983   0.8244   0.8860   0.9084   0.9179   0.9357   0.9502
  0.9622   0.9700   0.9832   0.9928   1.0079   1.0213   1.0244   1.0491
  1.0626   1.0748   1.0800   1.0944   1.1034   1.1119   1.1206   1.1286
  1.1372   1.1416   1.1473   1.1566   1.1599   1.1681   1.1796   1.1856
  1.1933   1.1983   1.2027   1.2081   1.2161   1.2243   1.2304   1.2468
  1.2548   1.2655   1.2719   1.2838   1.2883   1.2935   1.3073   1.3188
  1.3212   1.3292   1.3397   1.3461   1.3505   1.3522   1.3634   1.3666
  1.3689   1.3820   1.3859   1.3899   1.3904   1.3983   1.4034   1.4074
  1.4126   1.4202   1.4218   1.4248   1.4311   1.4403   1.4478   1.4549
  1.4586   1.4641   1.4648   1.4745   1.4796   1.4807   1.4896   1.4941
  1.5009   1.5041   1.5142   1.5172   1.5282   1.5326   1.5355   1.5502
  1.5521   1.5715   1.5998   1.6143   1.6294   1.6357   1.6407   1.6540
  1.6647   1.6728   1.6761   1.6816   1.7028   1.7066   1.7177   1.7266
  1.7355   1.7472   1.7540   1.7543   1.7620   1.7702   1.7898   1.7993
  1.8098   1.8279   1.8351   1.8509   1.8576   1.8603   1.8629   1.8710
  1.8724   1.8771   1.8813   1.8863   1.8919   1.8975   1.9037   1.9131
  1.9213   1.9260   1.9297   1.9424   1.9476   1.9555   1.9619   1.9635
  1.9703   1.9733   1.9761   1.9868   1.9892   1.9912   1.9933   2.0032
  2.0102   2.0115   2.0182   2.0293   2.0398   2.0448   2.0483   2.0585
  2.0682   2.0712   2.0802   2.0846   2.0897   2.0898   2.1025   2.1121
  2.1166   2.1208   2.1251   2.1291   2.1368   2.1381   2.1452   2.1599
  2.1787   2.1829   2.1880   2.1963   2.2064   2.2207   2.2263   2.2368
  2.2442   2.2467   2.2537   2.2626   2.2707   2.2837   2.2938   2.3041
  2.3312   2.3427   2.3601   2.3716   2.3795   2.3897   2.4122   2.4288
  2.4438   2.4507   2.4554   2.4714   2.4797   2.4869   2.4910   2.5007
  2.5078   2.5218   2.5262   2.5423   2.5686   2.6233   2.6352   2.6451
  2.6691   2.6799   2.7152   2.7216   2.7450   2.7525   2.8280   2.8431
  2.8518   2.8644   2.8795   2.8847   2.8894   2.8990   2.9338   2.9375
  2.9433   2.9445   2.9596   2.9642   2.9906   2.9929   3.0016   3.0295
  3.0545   3.0620   3.0843   3.0908   3.1015   3.1196   3.1281   3.1448
  3.1551   3.1626   3.1829   3.1906   3.1968   3.2204   3.2439   3.2494
  3.2660   3.2843   3.2899   3.3226   3.3410   3.9583   4.0329   4.0475
  4.1167   4.2185   4.2674   4.3011   4.3092   4.3608   4.4319   4.4776
  4.5214   4.6047   4.6510   4.7204   4.7565   4.8045   4.8281   4.9283
  4.9928   5.2558   5.3192   5.3569   5.4669   5.5147   5.6090   5.7112
  5.8019   5.9773   6.0245   6.7243
 --------------------------------------------------------------
 
          Ground-State Mulliken Net Atomic Charges

     Atom                 Charge (a.u.)
  ----------------------------------------
      1 C                     0.808355
      2 F                    -0.242404
      3 F                    -0.242688
      4 C                     0.378543
      5 O                    -0.530201
      6 C                     0.809655
      7 C                     0.429201
      8 F                    -0.290383
      9 F                    -0.254235
     10 C                     0.808369
     11 F                    -0.245076
     12 F                    -0.281303
     13 F                    -0.242102
     14 F                    -0.252100
     15 F                    -0.268173
     16 F                    -0.255792
     17 O                    -0.542866
     18 C                     0.781596
     19 C                     0.800596
     20 C                     0.321974
     21 F                    -0.256938
     22 F                    -0.256785
     23 S                     1.113323
     24 F                    -0.289322
     25 F                    -0.289168
     26 F                    -0.244425
     27 F                    -0.244042
     28 F                    -0.264978
     29 O                    -0.579474
     30 O                    -0.586344
     31 O                    -0.592812
  ----------------------------------------
  Sum of atomic charges =    -1.000000

 -----------------------------------------------------------------
                    Cartesian Multipole Moments
 -----------------------------------------------------------------
    Charge (ESU x 10^10)
                -4.8032
    Dipole Moment (Debye)
         X      22.7854      Y      -1.7797      Z       0.2060
       Tot      22.8557
    Quadrupole Moments (Debye-Ang)
        XX    -308.9589     XY      11.0472     YY    -179.1142
        XZ      -2.3678     YZ       0.4560     ZZ    -178.4477
    Octopole Moments (Debye-Ang^2)
       XXX     836.1479    XXY     -70.1202    XYY      72.9016
       YYY     -19.4799    XXZ      17.2321    XYZ       0.0766
       YYZ       4.7441    XZZ      66.4884    YZZ      -2.6047
       ZZZ      -2.9340
    Hexadecapole Moments (Debye-Ang^3)
      XXXX  -17734.8208   XXXY     429.3940   XXYY   -2751.6840
      XYYY      95.8151   YYYY   -1786.5376   XXXZ    -112.1328
      XXYZ       9.8553   XYYZ     -27.8112   YYYZ       6.0232
      XXZZ   -2573.1387   XYZZ      16.8752   YYZZ    -458.1365
      XZZZ       6.7287   YZZZ       0.9357   ZZZZ    -978.5634
 -----------------------------------------------------------------
 Calculating analytic gradient of the SCF energy
 ---- BrianQC J/K successfully initialized ---- 
 Gradient of SCF Energy
            1           2           3           4           5           6
    1  -0.0000768   0.0000323   0.0000696  -0.0001658   0.0000137  -0.0000331
    2   0.0000774   0.0000722  -0.0001463   0.0001068   0.0001993  -0.0000509
    3   0.0003078  -0.0002452  -0.0000829   0.0000442   0.0000833  -0.0000194
            7           8           9          10          11          12
    1   0.0000042   0.0000568   0.0001218  -0.0002848   0.0000292   0.0000969
    2   0.0000686   0.0000185  -0.0002834  -0.0000754   0.0000890  -0.0000662
    3   0.0000967  -0.0000984  -0.0001505  -0.0001584   0.0002789   0.0000845
           13          14          15          16          17          18
    1   0.0000944   0.0000212   0.0002622   0.0000009  -0.0001678  -0.0001411
    2   0.0000227   0.0002058  -0.0001958   0.0000341  -0.0000508  -0.0001090
    3  -0.0001403   0.0000492   0.0000540  -0.0001164  -0.0000200   0.0001576
           19          20          21          22          23          24
    1  -0.0003279  -0.0000699   0.0001179   0.0001088   0.0000935   0.0000623
    2   0.0002234   0.0001485  -0.0000438  -0.0000755   0.0000284  -0.0001410
    3   0.0001146   0.0001213  -0.0000301  -0.0000862  -0.0000721  -0.0000129
           25          26          27          28          29          30
    1   0.0000439  -0.0001231   0.0000171   0.0000936   0.0000053   0.0001092
    2   0.0000378  -0.0000089   0.0000152  -0.0000515  -0.0000005  -0.0000560
    3  -0.0000955   0.0000001   0.0000229  -0.0001828   0.0000530  -0.0000123
           31
    1  -0.0000644
    2   0.0000072
    3   0.0000555
 Max gradient component =       3.279E-04
 RMS gradient           =       1.201E-04
 Gradient time:  CPU 9.81 s  wall 9.43 s

 *****************************************************
             Starting BFGS Algorithm
 *****************************************************
            LIBOPT3 RUN PARAMETERS

  Geometry Optimization Coordinates :
	Delocalized Natural Internal Coordinates

  Step Length Selection Method :
	Eigenvector Following Algorithm

  Step Length Limiter :
	Root-Mean-Square of Gradient

  Convergence Criteria :
	Max Gradient Component    	3.00000000e-04
	Max Displacement Component	1.20000000e-03
	Absolute Energy Difference	1.00000000e-06

  Initial Hessian :
	Approximate Hessian - Model Internal Coordinate

  Type of Verification :
	Verify with final updated Hessian
 *****************************************************

	OPTIMIZATION CYCLE:	1

 Scaling Magnitude of Eigenvalues
 	Minimum: -25.00000000	 Maximum: 25.00000000
 87 Hessian Eigenvalues to form next step
   0.00200000   0.00200000   0.00200000   0.00211425   0.00223721
   0.00317285   0.01272165   0.01648945   0.01711013   0.01942148
   0.04876930   0.05306750   0.05317953   0.06832530   0.06865155
   0.06919403   0.08020792   0.08081828   0.08203465   0.08393167
   0.08503962   0.08530526   0.08574908   0.08582890   0.08641446
   0.08778195   0.10035629   0.10087761   0.10835752   0.10943995
   0.13710245   0.17003456   0.17092693   0.18126670   0.18560913
   0.19557377   0.20240245   0.20979246   0.21063918   0.21223129
   0.21448870   0.25000000   0.25000000   0.25000000   0.25000000
   0.25000000   0.25000000   0.25000000   0.25000000   0.25000000
   0.25000000   0.25000000   0.25000000   0.25000000   0.25000000
   0.25000000   0.25000000   0.25000000   0.26368973   0.26555313
   0.27363668   0.27441738   0.28045652   0.42145292   0.46694556
   0.47505926   0.50498104   0.50698198   0.52395599   0.52537408
   0.52553115   0.54633032   0.54958166   0.55923795   0.56370733
   0.56454930   0.56475138   0.56820149   0.57227407   0.57664219
   0.57801009   0.58037149   0.58048382   0.58158656   0.83629422
   0.84094088   0.84471702

 Minimum Search taking a RFO step
 Searching for Lambda that minimizes along all modes
	Value of Lambda   -0.00014969
	Norm  of Stepsize  0.20857550
	RMS   of Stepsize  0.02236164

	Performing Iterative Coordinate Back-Transformation

	  Starting from Previous Position

	  iter:	0	rms: 7.0920973673e-02	maxdev: 1.9188386577e-01
	  iter:	1	rms: 1.5606018723e-03	maxdev: 5.7431437999e-03
	  iter:	2	rms: 6.6292102684e-07	maxdev: 3.8664449350e-06	 Success!

	Finished Iterative Coordinate Back-Transformation
 ----------------------------------------------------------------
             Standard Nuclear Orientation (Angstroms)
    I     Atom           X                Y                Z
 ----------------------------------------------------------------
    1      C       4.1346909060     1.4384223033     0.7321088723
    2      F       3.3986483677     2.5381439681     0.9176422254
    3      F       4.2943146015     0.8188041786     1.9071581075
    4      C       3.4211701512     0.5141718760    -0.2916523567
    5      O       2.1984374067     0.1587031368     0.2748117074
    6      C       1.0083188534     0.3265072548    -0.4213683259
    7      C      -0.1349836535    -0.3550771122     0.4022770031
    8      F       0.0006711366     0.0705477349     1.7001416521
    9      F       5.3427366059     1.8044867842     0.2715833782
   10      C       4.2076277884    -0.7827643325    -0.6296769582
   11      F       4.4761515871    -1.4707833588     0.4880793087
   12      F       3.3019802163     1.2268434117    -1.4471990738
   13      F       3.4847056985    -1.5529703716    -1.4472615430
   14      F       5.3673152785    -0.4841727896    -1.2381737267
   15      F       1.0724897248    -0.2246450038    -1.6540184461
   16      F       0.7489101057     1.6361003892    -0.5703699163
   17      O      -1.2837725322     0.1011787323    -0.1923822562
   18      C      -2.5878065800    -0.2662944032     0.2404675291
   19      C       0.0144305037    -1.9110739789     0.4411811610
   20      C      -3.5676326737     0.7647618821    -0.3644192028
   21      F      -2.8535698624    -1.5122125831    -0.1933235936
   22      F      -2.6357148707    -0.2681712675     1.5814154060
   23      S      -5.4060396246     0.4172510543    -0.1074102628
   24      F      -3.2389932412     1.9653581916     0.1887693338
   25      F      -3.2932117922     0.8300189575    -1.6967479479
   26      F      -0.8100684523    -2.4362756692     1.3521941400
   27      F      -0.2486078619    -2.4474596488    -0.7553480202
   28      F       1.2734809744    -2.2568444357     0.7852538447
   29      O      -6.0145458854     1.6693712328    -0.6036615274
   30      O      -5.6272163828    -0.7817133982    -0.9445388459
   31      O      -5.4800881749     0.1981321124     1.3545590668
 ----------------------------------------------------------------
 Molecular Point Group                 C1    NOp =  1
 Largest Abelian Subgroup              C1    NOp =  1
 Nuclear Repulsion Energy =        4363.90286464 hartrees
 There are      129 alpha and      129 beta electrons
 Applying Cartesian multipole field
    Component          Value
    ---------          -----
     (2,0,0)        1.00000E-12
     (0,2,0)        2.00000E-11
     (0,0,2)       -3.00000E-11
 Nucleus-field energy     = 1.6905599133e-08 hartrees
 Requested basis set is 6-31G(d)
 There are 125 shells and 469 basis functions
 A cutoff of  1.0D-12 yielded   4002 shell pairs
 There are     63715 function pairs
 Smallest overlap matrix eigenvalue = 1.32E-03
 Guess MOs from SCF MO coefficient file

 -----------------------------------------------------------------------
  General SCF calculation program by
  Eric Jon Sundstrom, Paul Horn, Yuezhi Mao, Dmitri Zuev, Alec White,
  David Stuck, Shaama M.S., Shane Yost, Joonho Lee, David Small,
  Daniel Levine, Susi Lehtola, Hugh Burton, Evgeny Epifanovsky,
  Bang C. Huynh
 -----------------------------------------------------------------------
 Exchange:     0.2000 Hartree-Fock + 0.0800 Slater + 0.7200 B88
 Correlation:  0.1900 VWN1RPA + 0.8100 LYP
 Using SG-1 standard quadrature grid
 tid: 0x0 [2025.04.28-05:16:44.102] [INFO] Re-init GPU for small molecule mode
 tid: 0x0 [2025.04.28-05:16:44.232] [INFO] Detected device: CPU
 tid: 0x0 [2025.04.28-05:16:44.232] [INFO] Detected device: CUDA NVIDIA H100 80GB HBM3#0000:E4:00.0
 tid: 0x0 [2025.04.28-05:16:44.235] [INFO] Allocating 1 threads for GPU: CUDA NVIDIA H100 80GB HBM3#0000:E4:00.0 on node 0
 tid: 0x0 [2025.04.28-05:16:44.235] [INFO] Used GPU count: 1
 ---- BrianQC HCore successfully initialized ---- 
 ---- BrianQC J/K successfully initialized ---- 
 ---- BrianQC XC successfully initialized ---- 
BrianQC JK build time 1.0000000000 (s)
BrianQC XC build time 0.0000000000 (s)
 A restricted SCF calculation will be
 performed using DIIS
 SCF converges when DIIS error is below 1.0e-08
 ---------------------------------------
  Cycle       Energy         DIIS error
 ---------------------------------------
BrianQC JK build time 1.0e+00 (s)
BrianQC XC build time 0.0e+00 (s)
    1   -2776.4166139017      5.53e-04  
BrianQC JK build time 0.00e+00 (s)
BrianQC XC build time 1.00e+00 (s)
    2   -2776.4309119933      6.85e-05  
BrianQC JK build time 1.00e+00 (s)
BrianQC XC build time 0.00e+00 (s)
    3   -2776.4309893753      6.58e-05  
BrianQC JK build time 1.00e+00 (s)
BrianQC XC build time 0.00e+00 (s)
    4   -2776.4310590367      1.57e-05  
BrianQC JK build time 1.00e+00 (s)
BrianQC XC build time 0.00e+00 (s)
    5   -2776.4310635867      4.56e-06  
BrianQC JK build time 0.00e+00 (s)
BrianQC XC build time 1.00e+00 (s)
    6   -2776.4310639176      1.56e-06  
BrianQC JK build time 0.00e+00 (s)
BrianQC XC build time 1.00e+00 (s)
    7   -2776.4310639622      4.67e-07  
BrianQC JK build time 1.00e+00 (s)
BrianQC XC build time 0.00e+00 (s)
    8   -2776.4310639703      1.66e-07  
BrianQC JK build time 0.00e+00 (s)
BrianQC XC build time 0.00e+00 (s)
    9   -2776.4310639705      3.48e-08  
BrianQC JK build time 1.00e+00 (s)
BrianQC XC build time 0.00e+00 (s)
   10   -2776.4310639704      1.25e-08  
   11   -2776.4310639705      5.01e-09  Convergence criterion met
 ---------------------------------------
 SCF time:   CPU 546.46s  wall 26.00s 
 SCF   energy = -2776.43106397
 Total energy = -2776.43106397
 
 --------------------------------------------------------------
 
                    Orbital Energies (a.u.)
 --------------------------------------------------------------
 
 Alpha MOs
 -- Occupied --
-88.9418 -24.6992 -24.6985 -24.6979 -24.6979 -24.6971 -24.6965 -24.6939
-24.6734 -24.6695 -24.6686 -24.6675 -24.6670 -24.6483 -24.6256 -24.6243
-24.5915 -24.5912 -19.1713 -19.1295 -18.9628 -18.9619 -18.9617 -10.4088
-10.4084 -10.3789 -10.3747 -10.3364 -10.3218 -10.3029 -10.2353  -7.9629
 -5.9280  -5.9271  -5.9271  -1.2839  -1.2766  -1.2506  -1.2347  -1.2110
 -1.1926  -1.1911  -1.1893  -1.1887  -1.1881  -1.1687  -1.1607  -1.1596
 -1.1588  -1.1339  -1.1167  -1.0761  -1.0572  -1.0121  -0.9457  -0.8123
 -0.8114  -0.7862  -0.7362  -0.6821  -0.6648  -0.6597  -0.6209  -0.5975
 -0.5813  -0.5767  -0.5683  -0.5617  -0.5537  -0.5477  -0.5433  -0.5362
 -0.5333  -0.5298  -0.5272  -0.5113  -0.5063  -0.4949  -0.4747  -0.4702
 -0.4509  -0.4473  -0.4338  -0.4302  -0.4245  -0.4238  -0.4216  -0.4182
 -0.4156  -0.4036  -0.4021  -0.3976  -0.3958  -0.3934  -0.3928  -0.3862
 -0.3817  -0.3792  -0.3755  -0.3721  -0.3708  -0.3685  -0.3663  -0.3650
 -0.3623  -0.3508  -0.3483  -0.3422  -0.3414  -0.3363  -0.3348  -0.3250
 -0.3191  -0.3147  -0.3021  -0.2977  -0.2840  -0.2827  -0.2817  -0.2777
 -0.2748  -0.2567  -0.2499  -0.1680  -0.1677  -0.1381  -0.1362  -0.1283
 -0.0906
 -- Virtual --
  0.0967   0.1127   0.1390   0.1568   0.1980   0.2044   0.2106   0.2123
  0.2284   0.2373   0.2407   0.2469   0.2542   0.2587   0.2668   0.2717
  0.2774   0.2887   0.2992   0.3030   0.3078   0.3166   0.3222   0.3269
  0.3393   0.3592   0.3817   0.3883   0.4131   0.4273   0.4773   0.4831
  0.4903   0.5027   0.5131   0.5240   0.5311   0.5434   0.5505   0.5572
  0.5594   0.5748   0.5803   0.5985   0.6128   0.6157   0.6569   0.6666
  0.6686   0.6806   0.6906   0.6953   0.7017   0.7269   0.7405   0.7663
  0.7709   0.7975   0.8230   0.8864   0.9072   0.9172   0.9360   0.9490
  0.9624   0.9704   0.9862   0.9913   1.0076   1.0230   1.0278   1.0484
  1.0634   1.0754   1.0807   1.0955   1.1028   1.1121   1.1208   1.1286
  1.1375   1.1422   1.1455   1.1569   1.1616   1.1647   1.1818   1.1855
  1.1930   1.1990   1.2026   1.2086   1.2161   1.2252   1.2309   1.2446
  1.2557   1.2655   1.2733   1.2843   1.2889   1.2948   1.3086   1.3193
  1.3213   1.3283   1.3398   1.3486   1.3500   1.3536   1.3618   1.3656
  1.3702   1.3816   1.3860   1.3904   1.3919   1.3965   1.4033   1.4079
  1.4142   1.4187   1.4227   1.4244   1.4307   1.4385   1.4473   1.4562
  1.4580   1.4614   1.4644   1.4717   1.4797   1.4830   1.4876   1.4947
  1.4996   1.5045   1.5109   1.5172   1.5269   1.5338   1.5339   1.5481
  1.5504   1.5718   1.5998   1.6156   1.6300   1.6356   1.6404   1.6533
  1.6647   1.6702   1.6749   1.6817   1.7031   1.7053   1.7191   1.7270
  1.7348   1.7468   1.7533   1.7543   1.7630   1.7697   1.7883   1.7991
  1.8077   1.8281   1.8359   1.8510   1.8581   1.8604   1.8628   1.8682
  1.8725   1.8767   1.8808   1.8865   1.8927   1.8968   1.9032   1.9145
  1.9182   1.9266   1.9295   1.9422   1.9475   1.9550   1.9610   1.9629
  1.9706   1.9725   1.9765   1.9866   1.9891   1.9914   1.9933   2.0038
  2.0107   2.0116   2.0183   2.0298   2.0391   2.0444   2.0485   2.0581
  2.0650   2.0711   2.0796   2.0854   2.0902   2.0907   2.1014   2.1122
  2.1170   2.1201   2.1232   2.1280   2.1363   2.1393   2.1448   2.1597
  2.1745   2.1815   2.1893   2.1959   2.2043   2.2204   2.2245   2.2352
  2.2432   2.2467   2.2535   2.2604   2.2641   2.2855   2.2917   2.3029
  2.3307   2.3422   2.3586   2.3709   2.3756   2.3892   2.4180   2.4280
  2.4421   2.4458   2.4584   2.4707   2.4813   2.4862   2.4925   2.4988
  2.5085   2.5217   2.5260   2.5420   2.5701   2.6214   2.6356   2.6464
  2.6671   2.6793   2.7181   2.7217   2.7486   2.7548   2.8266   2.8430
  2.8541   2.8638   2.8784   2.8841   2.8890   2.8972   2.9324   2.9383
  2.9424   2.9438   2.9614   2.9647   2.9895   2.9929   3.0005   3.0285
  3.0542   3.0631   3.0839   3.0905   3.1025   3.1209   3.1290   3.1431
  3.1560   3.1620   3.1848   3.1924   3.1969   3.2183   3.2468   3.2512
  3.2653   3.2896   3.2909   3.3208   3.3413   3.9578   4.0352   4.0488
  4.1214   4.2184   4.2649   4.2965   4.3007   4.3594   4.4416   4.4697
  4.5231   4.6012   4.6370   4.7210   4.7570   4.7997   4.8236   4.9154
  5.0072   5.2602   5.3075   5.3515   5.4872   5.5157   5.6567   5.7039
  5.8048   5.9728   6.0746   6.7370
 --------------------------------------------------------------
 
          Ground-State Mulliken Net Atomic Charges

     Atom                 Charge (a.u.)
  ----------------------------------------
      1 C                     0.807593
      2 F                    -0.242405
      3 F                    -0.243023
      4 C                     0.378553
      5 O                    -0.531166
      6 C                     0.811144
      7 C                     0.430315
      8 F                    -0.290360
      9 F                    -0.253826
     10 C                     0.808032
     11 F                    -0.244883
     12 F                    -0.281145
     13 F                    -0.241968
     14 F                    -0.251702
     15 F                    -0.268345
     16 F                    -0.256725
     17 O                    -0.543353
     18 C                     0.781523
     19 C                     0.799918
     20 C                     0.321617
     21 F                    -0.257031
     22 F                    -0.256160
     23 S                     1.113322
     24 F                    -0.289364
     25 F                    -0.289246
     26 F                    -0.244430
     27 F                    -0.243911
     28 F                    -0.264387
     29 O                    -0.579507
     30 O                    -0.586115
     31 O                    -0.592966
  ----------------------------------------
  Sum of atomic charges =    -1.000000

 -----------------------------------------------------------------
                    Cartesian Multipole Moments
 -----------------------------------------------------------------
    Charge (ESU x 10^10)
                -4.8032
    Dipole Moment (Debye)
         X      22.8257      Y      -1.7511      Z       0.3330
       Tot      22.8952
    Quadrupole Moments (Debye-Ang)
        XX    -309.1207     XY      10.7324     YY    -179.0877
        XZ      -3.1569     YZ       0.5286     ZZ    -178.4995
    Octopole Moments (Debye-Ang^2)
       XXX     838.9819    XXY     -68.2930    XYY      72.5623
       YYY     -18.4837    XXZ      21.8040    XYZ      -0.2258
       YYZ       5.3036    XZZ      66.7038    YZZ      -2.8813
       ZZZ      -1.6419
    Hexadecapole Moments (Debye-Ang^3)
      XXXX  -17757.9620   XXXY     420.2037   XXYY   -2748.1740
      XYYY      92.2920   YYYY   -1756.6535   XXXZ    -150.5242
      XXYZ      14.4172   XYYZ     -35.2406   YYYZ      10.1092
      XXZZ   -2581.3256   XYZZ      19.5474   YYZZ    -457.3165
      XZZZ      -7.6754   YZZZ       4.5874   ZZZZ    -999.7278
 -----------------------------------------------------------------
 Calculating analytic gradient of the SCF energy
 ---- BrianQC J/K successfully initialized ---- 
 Gradient of SCF Energy
            1           2           3           4           5           6
    1   0.0002050  -0.0000652  -0.0001953  -0.0001255  -0.0003873  -0.0000094
    2  -0.0005250   0.0000615   0.0001763  -0.0007158   0.0000174   0.0001193
    3  -0.0001075   0.0002341  -0.0000677  -0.0000637   0.0003415   0.0001717
            7           8           9          10          11          12
    1  -0.0003965  -0.0002463   0.0001253   0.0000092   0.0000081  -0.0000773
    2  -0.0000518   0.0001286   0.0004790   0.0002738  -0.0000126   0.0000979
    3   0.0004061   0.0000977   0.0000487   0.0000087   0.0000896   0.0001130
           13          14          15          16          17          18
    1   0.0000681   0.0001457   0.0001305   0.0003918   0.0000880  -0.0002273
    2  -0.0000390  -0.0003540   0.0000624  -0.0002895   0.0001407  -0.0001493
    3   0.0000333  -0.0002970  -0.0004974  -0.0002432   0.0000135  -0.0001137
           19          20          21          22          23          24
    1  -0.0001061  -0.0000337  -0.0000380  -0.0002786   0.0001182   0.0000240
    2  -0.0001877   0.0000468   0.0000098   0.0001790   0.0000880   0.0000178
    3  -0.0003486   0.0000603   0.0000818   0.0001238  -0.0000941   0.0000190
           25          26          27          28          29          30
    1  -0.0000903   0.0002484   0.0000103   0.0007660  -0.0000669  -0.0000524
    2   0.0000044  -0.0000663  -0.0001374   0.0006863   0.0000022  -0.0000263
    3   0.0000517  -0.0001787   0.0000819   0.0000189   0.0000079  -0.0000317
           31
    1   0.0000575
    2  -0.0000363
    3   0.0000404
 Max gradient component =       7.660E-04
 RMS gradient           =       2.212E-04
 Gradient time:  CPU 9.41 s  wall 8.75 s

     Step 1	:
        Energy is -2776.4310639705
                            Maximum         Tolerance       Converged?
         Gradient           2.84477151e-03	3.00000000e-04	false
         Displacement       9.06450697e-02	1.20000000e-03	false
         Energy change      2.83865675e-05	1.00000000e-06	false


	OPTIMIZATION CYCLE:	2

 Scaling Magnitude of Eigenvalues
 	Minimum: -25.00000000	 Maximum: 25.00000000
 87 Hessian Eigenvalues to form next step
   0.00173221   0.00200000   0.00209397   0.00218504   0.00312729
   0.00330161   0.01180697   0.01593888   0.01683935   0.01993126
   0.04878324   0.05301753   0.05328150   0.06818659   0.06849436
   0.07135681   0.07926073   0.08081836   0.08215461   0.08367889
   0.08481843   0.08550037   0.08574496   0.08637113   0.08742024
   0.08872778   0.10056102   0.10093034   0.10834744   0.10943858
   0.13705898   0.16952283   0.17116644   0.18146985   0.18542334
   0.19540624   0.20221229   0.20635463   0.21067941   0.21223866
   0.22630149   0.24317124   0.25000000   0.25000000   0.25000000
   0.25000000   0.25000000   0.25000000   0.25000000   0.25000000
   0.25000000   0.25000000   0.25000000   0.25000000   0.25000000
   0.25000000   0.25000000   0.26361395   0.26538756   0.27280150
   0.27423319   0.28035441   0.34043208   0.42540812   0.46693431
   0.47505436   0.50505538   0.50916464   0.52389549   0.52538461
   0.52563760   0.54692039   0.55131745   0.55925066   0.56370394
   0.56470012   0.56568430   0.56858746   0.57210712   0.57680713
   0.57800741   0.58045981   0.58118579   0.58164386   0.83626967
   0.84093427   0.84472492

 Minimum Search taking a RFO step
 Searching for Lambda that minimizes along all modes
	Value of Lambda   -0.00011617
	Norm  of Stepsize  0.09255702
	RMS   of Stepsize  0.00992315

	Performing Iterative Coordinate Back-Transformation

	  Starting from Previous Position

	  iter:	0	rms: 2.7202918695e-02	maxdev: 8.4141774533e-02
	  iter:	1	rms: 2.5130356830e-04	maxdev: 1.0466239721e-03
	  iter:	2	rms: 2.8673928754e-08	maxdev: 1.5260828568e-07	 Success!

	Finished Iterative Coordinate Back-Transformation
 ----------------------------------------------------------------
             Standard Nuclear Orientation (Angstroms)
    I     Atom           X                Y                Z
 ----------------------------------------------------------------
    1      C       4.1223220854     1.4519678081     0.7297537551
    2      F       3.3746856093     2.5443286309     0.9118656654
    3      F       4.2867998093     0.8361791736     1.9062446577
    4      C       3.4205635776     0.5186120059    -0.2938017541
    5      O       2.2026594860     0.1473968011     0.2731058609
    6      C       1.0096400525     0.3071919910    -0.4200416242
    7      C      -0.1324532441    -0.3752071964     0.4043238386
    8      F       0.0092676452     0.0432305475     1.7038518803
    9      F       5.3272858890     1.8290280689     0.2705059615
   10      C       4.2229288491    -0.7683375717    -0.6325001136
   11      F       4.4919276466    -1.4593804650     0.4831214241
   12      F       3.2920483365     1.2296565777    -1.4494415951
   13      F       3.5131294336    -1.5420971000    -1.4581976848
   14      F       5.3829980361    -0.4535257681    -1.2317573790
   15      F       1.0721364898    -0.2437483898    -1.6525768960
   16      F       0.7432429408     1.6156242873    -0.5683184711
   17      O      -1.2784202086     0.0925361976    -0.1864902941
   18      C      -2.5844640548    -0.2657282720     0.2469780899
   19      C      -0.0015908809    -1.9334578335     0.4368190578
   20      C      -3.5581853452     0.7676692784    -0.3638541767
   21      F      -2.8570320609    -1.5117508041    -0.1822752014
   22      F      -2.6325312665    -0.2624233754     1.5878831662
   23      S      -5.3990769238     0.4348548485    -0.1032538676
   24      F      -3.2213207864     1.9702315477     0.1801234722
   25      F      -3.2842446723     0.8213753861    -1.6967918641
   26      F      -0.8531808311    -2.4522920167     1.3264590737
   27      F      -0.2467758753    -2.4587308896    -0.7684190244
   28      F       1.2434997213    -2.3012251498     0.8066225448
   29      O      -5.9989867680     1.6842427332    -0.6165560015
   30      O      -5.6277015998    -0.7734917033    -0.9246987352
   31      O      -5.4753427721     0.2356154990     1.3614069670
 ----------------------------------------------------------------
 Molecular Point Group                 C1    NOp =  1
 Largest Abelian Subgroup              C1    NOp =  1
 Nuclear Repulsion Energy =        4362.33700476 hartrees
 There are      129 alpha and      129 beta electrons
 Applying Cartesian multipole field
    Component          Value
    ---------          -----
     (2,0,0)        1.00000E-12
     (0,2,0)        2.00000E-11
     (0,0,2)       -3.00000E-11
 Nucleus-field energy     = 1.7198281850e-08 hartrees
 Requested basis set is 6-31G(d)
 There are 125 shells and 469 basis functions
 A cutoff of  1.0D-12 yielded   3997 shell pairs
 There are     63659 function pairs
 Smallest overlap matrix eigenvalue = 1.32E-03
 Guess MOs from SCF MO coefficient file

 -----------------------------------------------------------------------
  General SCF calculation program by
  Eric Jon Sundstrom, Paul Horn, Yuezhi Mao, Dmitri Zuev, Alec White,
  David Stuck, Shaama M.S., Shane Yost, Joonho Lee, David Small,
  Daniel Levine, Susi Lehtola, Hugh Burton, Evgeny Epifanovsky,
  Bang C. Huynh
 -----------------------------------------------------------------------
 Exchange:     0.2000 Hartree-Fock + 0.0800 Slater + 0.7200 B88
 Correlation:  0.1900 VWN1RPA + 0.8100 LYP
 Using SG-1 standard quadrature grid
 tid: 0x0 [2025.04.28-05:17:19.071] [INFO] Re-init GPU for small molecule mode
 tid: 0x0 [2025.04.28-05:17:19.409] [INFO] Detected device: CPU
 tid: 0x0 [2025.04.28-05:17:19.409] [INFO] Detected device: CUDA NVIDIA H100 80GB HBM3#0000:E4:00.0
 tid: 0x0 [2025.04.28-05:17:19.412] [INFO] Allocating 1 threads for GPU: CUDA NVIDIA H100 80GB HBM3#0000:E4:00.0 on node 0
 tid: 0x0 [2025.04.28-05:17:19.412] [INFO] Used GPU count: 1
 ---- BrianQC HCore successfully initialized ---- 
 ---- BrianQC J/K successfully initialized ---- 
 ---- BrianQC XC successfully initialized ---- 
BrianQC JK build time 1.0000000000 (s)
BrianQC XC build time 1.0000000000 (s)
 A restricted SCF calculation will be
 performed using DIIS
 SCF converges when DIIS error is below 1.0e-08
 ---------------------------------------
  Cycle       Energy         DIIS error
 ---------------------------------------
BrianQC JK build time 1.0e+00 (s)
BrianQC XC build time 0.0e+00 (s)
    1   -2776.4294063890      1.89e-04  
BrianQC JK build time 0.00e+00 (s)
BrianQC XC build time 1.00e+00 (s)
    2   -2776.4310649504      2.35e-05  
BrianQC JK build time 0.00e+00 (s)
BrianQC XC build time 1.00e+00 (s)
    3   -2776.4310700516      2.63e-05  
BrianQC JK build time 0.00e+00 (s)
BrianQC XC build time 0.00e+00 (s)
    4   -2776.4310820651      6.65e-06  
BrianQC JK build time 0.00e+00 (s)
BrianQC XC build time 0.00e+00 (s)
    5   -2776.4310827461      3.47e-06  
BrianQC JK build time 0.00e+00 (s)
BrianQC XC build time 0.00e+00 (s)
    6   -2776.4310829943      4.73e-07  
BrianQC JK build time 0.00e+00 (s)
BrianQC XC build time 1.00e+00 (s)
    7   -2776.4310829920      2.18e-07  
BrianQC JK build time 1.00e+00 (s)
BrianQC XC build time 0.00e+00 (s)
    8   -2776.4310829939      4.96e-08  
BrianQC JK build time 0.00e+00 (s)
BrianQC XC build time 0.00e+00 (s)
    9   -2776.4310829942      1.15e-08  
   10   -2776.4310829945      4.59e-09  Convergence criterion met
 ---------------------------------------
 SCF time:   CPU 360.83s  wall 19.00s 
 SCF   energy = -2776.43108299
 Total energy = -2776.43108299
 
 --------------------------------------------------------------
 
                    Orbital Energies (a.u.)
 --------------------------------------------------------------
 
 Alpha MOs
 -- Occupied --
-88.9417 -24.6992 -24.6988 -24.6981 -24.6979 -24.6974 -24.6965 -24.6941
-24.6734 -24.6695 -24.6682 -24.6674 -24.6665 -24.6483 -24.6254 -24.6240
-24.5914 -24.5910 -19.1717 -19.1293 -18.9627 -18.9619 -18.9616 -10.4088
-10.4087 -10.3789 -10.3747 -10.3365 -10.3216 -10.3029 -10.2352  -7.9629
 -5.9280  -5.9270  -5.9270  -1.2841  -1.2767  -1.2505  -1.2346  -1.2111
 -1.1927  -1.1912  -1.1895  -1.1889  -1.1880  -1.1686  -1.1605  -1.1593
 -1.1587  -1.1338  -1.1166  -1.0760  -1.0574  -1.0122  -0.9457  -0.8123
 -0.8114  -0.7861  -0.7362  -0.6822  -0.6647  -0.6597  -0.6210  -0.5975
 -0.5813  -0.5767  -0.5684  -0.5617  -0.5538  -0.5479  -0.5435  -0.5362
 -0.5331  -0.5297  -0.5271  -0.5113  -0.5062  -0.4949  -0.4745  -0.4701
 -0.4508  -0.4473  -0.4339  -0.4303  -0.4246  -0.4239  -0.4215  -0.4183
 -0.4156  -0.4033  -0.4021  -0.3977  -0.3959  -0.3932  -0.3928  -0.3862
 -0.3818  -0.3792  -0.3754  -0.3722  -0.3707  -0.3685  -0.3662  -0.3651
 -0.3624  -0.3509  -0.3483  -0.3420  -0.3417  -0.3362  -0.3343  -0.3249
 -0.3189  -0.3144  -0.3020  -0.2976  -0.2841  -0.2826  -0.2817  -0.2777
 -0.2747  -0.2566  -0.2498  -0.1680  -0.1676  -0.1381  -0.1362  -0.1282
 -0.0905
 -- Virtual --
  0.0966   0.1127   0.1390   0.1568   0.1983   0.2044   0.2107   0.2123
  0.2285   0.2371   0.2406   0.2468   0.2540   0.2588   0.2668   0.2718
  0.2776   0.2883   0.2998   0.3029   0.3079   0.3164   0.3225   0.3270
  0.3394   0.3592   0.3816   0.3883   0.4132   0.4275   0.4773   0.4829
  0.4900   0.5026   0.5135   0.5241   0.5313   0.5433   0.5505   0.5572
  0.5595   0.5750   0.5802   0.5987   0.6134   0.6155   0.6567   0.6662
  0.6690   0.6806   0.6905   0.6954   0.7023   0.7270   0.7403   0.7671
  0.7706   0.7968   0.8241   0.8869   0.9075   0.9170   0.9362   0.9488
  0.9624   0.9709   0.9863   0.9902   1.0079   1.0222   1.0288   1.0485
  1.0628   1.0754   1.0809   1.0954   1.1028   1.1120   1.1202   1.1282
  1.1375   1.1420   1.1449   1.1579   1.1595   1.1649   1.1812   1.1864
  1.1932   1.1989   1.2025   1.2089   1.2161   1.2256   1.2303   1.2450
  1.2559   1.2651   1.2739   1.2847   1.2880   1.2946   1.3089   1.3188
  1.3209   1.3287   1.3396   1.3481   1.3493   1.3542   1.3621   1.3655
  1.3708   1.3817   1.3858   1.3900   1.3932   1.3962   1.4031   1.4074
  1.4133   1.4168   1.4218   1.4245   1.4301   1.4385   1.4459   1.4566
  1.4581   1.4615   1.4646   1.4724   1.4793   1.4837   1.4871   1.4947
  1.5006   1.5036   1.5119   1.5179   1.5267   1.5328   1.5366   1.5484
  1.5517   1.5691   1.5997   1.6150   1.6291   1.6344   1.6411   1.6533
  1.6647   1.6709   1.6745   1.6820   1.7015   1.7058   1.7184   1.7281
  1.7345   1.7466   1.7535   1.7541   1.7621   1.7681   1.7878   1.7983
  1.8072   1.8281   1.8354   1.8514   1.8581   1.8597   1.8622   1.8687
  1.8726   1.8764   1.8803   1.8873   1.8931   1.8963   1.9029   1.9149
  1.9198   1.9248   1.9294   1.9422   1.9476   1.9544   1.9612   1.9630
  1.9706   1.9726   1.9766   1.9862   1.9889   1.9912   1.9933   2.0045
  2.0108   2.0112   2.0184   2.0309   2.0397   2.0445   2.0480   2.0587
  2.0637   2.0705   2.0798   2.0849   2.0900   2.0906   2.1013   2.1128
  2.1172   2.1205   2.1225   2.1282   2.1364   2.1394   2.1447   2.1574
  2.1716   2.1820   2.1894   2.1971   2.2046   2.2205   2.2244   2.2342
  2.2433   2.2468   2.2524   2.2590   2.2627   2.2860   2.2913   2.3035
  2.3307   2.3415   2.3582   2.3712   2.3740   2.3888   2.4183   2.4268
  2.4413   2.4462   2.4597   2.4707   2.4817   2.4862   2.4932   2.4971
  2.5073   2.5216   2.5261   2.5409   2.5697   2.6222   2.6381   2.6479
  2.6670   2.6799   2.7185   2.7220   2.7501   2.7544   2.8270   2.8425
  2.8546   2.8642   2.8781   2.8846   2.8892   2.8974   2.9321   2.9378
  2.9425   2.9440   2.9617   2.9642   2.9900   2.9928   3.0012   3.0292
  3.0540   3.0631   3.0843   3.0908   3.1026   3.1203   3.1287   3.1448
  3.1561   3.1620   3.1831   3.1922   3.1971   3.2186   3.2474   3.2512
  3.2658   3.2893   3.2915   3.3194   3.3400   3.9580   4.0350   4.0480
  4.1201   4.2177   4.2636   4.2961   4.3013   4.3590   4.4396   4.4652
  4.5206   4.6020   4.6400   4.7218   4.7555   4.8000   4.8249   4.9140
  5.0064   5.2567   5.3045   5.3507   5.4848   5.5197   5.6512   5.7102
  5.7993   5.9748   6.0941   6.7437
 --------------------------------------------------------------
 
          Ground-State Mulliken Net Atomic Charges

     Atom                 Charge (a.u.)
  ----------------------------------------
      1 C                     0.807803
      2 F                    -0.242156
      3 F                    -0.243084
      4 C                     0.378364
      5 O                    -0.531647
      6 C                     0.811607
      7 C                     0.430024
      8 F                    -0.290508
      9 F                    -0.253752
     10 C                     0.807815
     11 F                    -0.244564
     12 F                    -0.280972
     13 F                    -0.241918
     14 F                    -0.251611
     15 F                    -0.268004
     16 F                    -0.257031
     17 O                    -0.543144
     18 C                     0.782458
     19 C                     0.799222
     20 C                     0.321737
     21 F                    -0.257579
     22 F                    -0.256577
     23 S                     1.113486
     24 F                    -0.289423
     25 F                    -0.289318
     26 F                    -0.244130
     27 F                    -0.244120
     28 F                    -0.264327
     29 O                    -0.579593
     30 O                    -0.586152
     31 O                    -0.592905
  ----------------------------------------
  Sum of atomic charges =    -1.000000

 -----------------------------------------------------------------
                    Cartesian Multipole Moments
 -----------------------------------------------------------------
    Charge (ESU x 10^10)
                -4.8032
    Dipole Moment (Debye)
         X      22.8179      Y      -1.8210      Z       0.3131
       Tot      22.8926
    Quadrupole Moments (Debye-Ang)
        XX    -308.7273     XY      11.1259     YY    -179.1910
        XZ      -3.0815     YZ       0.5535     ZZ    -178.4969
    Octopole Moments (Debye-Ang^2)
       XXX     836.0246    XXY     -70.4553    XYY      72.8482
       YYY     -19.0715    XXZ      21.1872    XYZ      -0.2218
       YYZ       5.2754    XZZ      66.5631    YZZ      -3.2774
       ZZZ      -1.9572
    Hexadecapole Moments (Debye-Ang^3)
      XXXX  -17713.7629   XXXY     429.2905   XXYY   -2749.4014
      XYYY      95.1271   YYYY   -1773.9116   XXXZ    -141.8622
      XXYZ      14.9458   XYYZ     -33.4267   YYYZ      11.0277
      XXZZ   -2577.4807   XYZZ      21.5960   YYZZ    -460.1488
      XZZZ      -0.6825   YZZZ       4.8659   ZZZZ    -999.7507
 -----------------------------------------------------------------
 Calculating analytic gradient of the SCF energy
 ---- BrianQC J/K successfully initialized ---- 
 Gradient of SCF Energy
            1           2           3           4           5           6
    1   0.0001022  -0.0000548  -0.0000976  -0.0001304   0.0003433   0.0001285
    2  -0.0004598   0.0000798   0.0002685  -0.0006957   0.0015471  -0.0001995
    3  -0.0000623   0.0002062   0.0000204  -0.0000730   0.0002415   0.0001664
            7           8           9          10          11          12
    1  -0.0004792  -0.0001538  -0.0000123   0.0000295   0.0000193  -0.0001008
    2   0.0001861   0.0001852   0.0002721   0.0001006  -0.0001293   0.0002311
    3   0.0001341  -0.0000428   0.0000494  -0.0001021  -0.0000614  -0.0000187
           13          14          15          16          17          18
    1   0.0000748   0.0000656  -0.0003499   0.0000613   0.0006073  -0.0002024
    2  -0.0001186  -0.0001973   0.0001553  -0.0004619   0.0001309   0.0000328
    3   0.0002254  -0.0001234  -0.0004090  -0.0001137  -0.0000305   0.0000066
           19          20          21          22          23          24
    1  -0.0000079   0.0000132   0.0003192  -0.0000877   0.0000394   0.0000167
    2  -0.0001539  -0.0000061  -0.0000813   0.0000265   0.0000334   0.0000595
    3  -0.0005442  -0.0000706   0.0003346   0.0000996  -0.0000373   0.0000080
           25          26          27          28          29          30
    1  -0.0000840  -0.0001529   0.0000575   0.0001160  -0.0000413  -0.0000766
    2   0.0000173   0.0000270  -0.0000869  -0.0007206  -0.0000028  -0.0000204
    3   0.0001046  -0.0004608   0.0002210   0.0003691  -0.0000283  -0.0000431
           31
    1   0.0000377
    2  -0.0000191
    3   0.0000342
 Max gradient component =       1.547E-03
 RMS gradient           =       2.687E-04
 Gradient time:  CPU 9.72 s  wall 8.74 s

     Step 2	:
        Energy is -2776.4310829945
                            Maximum         Tolerance       Converged?
         Gradient           1.53081864e-03	3.00000000e-04	false
         Displacement       3.30628571e-02	1.20000000e-03	false
         Energy change      1.90240416e-05	1.00000000e-06	false


	OPTIMIZATION CYCLE:	3

 Scaling Magnitude of Eigenvalues
 	Minimum: -25.00000000	 Maximum: 25.00000000
 87 Hessian Eigenvalues to form next step
   0.00183147   0.00201251   0.00212309   0.00228414   0.00315244
   0.00437174   0.01309618   0.01478556   0.01678881   0.01949520
   0.04872800   0.05317982   0.05369173   0.06829250   0.06919992
   0.07222518   0.08077638   0.08097007   0.08189390   0.08476611
   0.08489806   0.08544187   0.08583032   0.08640725   0.08775600
   0.09349571   0.10025928   0.10077722   0.10832863   0.10943883
   0.13708693   0.16635989   0.17130240   0.17890174   0.18558459
   0.19380247   0.19864313   0.20254340   0.20988632   0.21140158
   0.21731119   0.24257471   0.25000000   0.25000000   0.25000000
   0.25000000   0.25000000   0.25000000   0.25000000   0.25000000
   0.25000000   0.25000000   0.25000000   0.25000000   0.25000000
   0.25000000   0.25003332   0.26322904   0.26455168   0.27358302
   0.27441306   0.28045513   0.38433665   0.42172244   0.46784210
   0.47593248   0.50499847   0.51873466   0.52460690   0.52536397
   0.52567716   0.54523341   0.54870979   0.55930392   0.56329490
   0.56455019   0.56526948   0.56819167   0.57210894   0.57656048
   0.57840061   0.58025730   0.58047999   0.58169388   0.83625892
   0.84092510   0.84471677

 Minimum Search taking a RFO step
 Searching for Lambda that minimizes along all modes
	Value of Lambda   -0.00014689
	Norm  of Stepsize  0.16748588
	RMS   of Stepsize  0.01795637

	Performing Iterative Coordinate Back-Transformation

	  Starting from Previous Position

	  iter:	0	rms: 3.0156229011e-02	maxdev: 1.2503949254e-01
	  iter:	1	rms: 4.4711256495e-04	maxdev: 1.5403175682e-03
	  iter:	2	rms: 1.0448324197e-07	maxdev: 7.5327454609e-07	 Success!

	Finished Iterative Coordinate Back-Transformation
 ----------------------------------------------------------------
             Standard Nuclear Orientation (Angstroms)
    I     Atom           X                Y                Z
 ----------------------------------------------------------------
    1      C       4.1236803944     1.4462231121     0.7300698157
    2      F       3.3898871897     2.5492366898     0.9030824150
    3      F       4.2709096829     0.8287867401     1.9081508903
    4      C       3.4194895824     0.5208554542    -0.2984123982
    5      O       2.2055336287     0.1380727657     0.2698430927
    6      C       1.0086156876     0.3030493509    -0.4150266662
    7      C      -0.1321726910    -0.3733689238     0.4153441294
    8      F       0.0116902293     0.0554535121     1.7111926698
    9      F       5.3377341301     1.8035847145     0.2795723451
   10      C       4.2256233456    -0.7588930017    -0.6520766805
   11      F       4.4720358824    -1.4771667348     0.4514031582
   12      F       3.2850983335     1.2411112164    -1.4476038242
   13      F       3.5313183215    -1.5101466187    -1.5111740427
   14      F       5.3973878650    -0.4290144115    -1.2192929717
   15      F       1.0619902825    -0.2481533946    -1.6474098269
   16      F       0.7453183177     1.6129893849    -0.5593201916
   17      O      -1.2770743079     0.0905053468    -0.1808661933
   18      C      -2.5844866275    -0.2719745887     0.2431691356
   19      C      -0.0088046739    -1.9309868518     0.4646128510
   20      C      -3.5544432857     0.7674986100    -0.3629390324
   21      F      -2.8563573533    -1.5127500479    -0.2016484699
   22      F      -2.6377424667    -0.2831038023     1.5837176305
   23      S      -5.3971280266     0.4326568746    -0.1172829959
   24      F      -3.2208615474     1.9648816838     0.1942268211
   25      F      -3.2717727961     0.8334745746    -1.6936052166
   26      F      -0.8309961997    -2.4316724592     1.3918814415
   27      F      -0.2999523721    -2.4698326535    -0.7244126654
   28      F       1.2457973933    -2.3021501695     0.7947575080
   29      O      -5.9934178009     1.6816014686    -0.6358091655
   30      O      -5.6171715901    -0.7758975532    -0.9406949816
   31      O      -5.4859002092     0.2334745593     1.3466421511
 ----------------------------------------------------------------
 Molecular Point Group                 C1    NOp =  1
 Largest Abelian Subgroup              C1    NOp =  1
 Nuclear Repulsion Energy =        4362.19063209 hartrees
 There are      129 alpha and      129 beta electrons
 Applying Cartesian multipole field
    Component          Value
    ---------          -----
     (2,0,0)        1.00000E-12
     (0,2,0)        2.00000E-11
     (0,0,2)       -3.00000E-11
 Nucleus-field energy     = 1.6863625834e-08 hartrees
 Requested basis set is 6-31G(d)
 There are 125 shells and 469 basis functions
 A cutoff of  1.0D-12 yielded   3992 shell pairs
 There are     63573 function pairs
 Smallest overlap matrix eigenvalue = 1.31E-03
 Guess MOs from SCF MO coefficient file

 -----------------------------------------------------------------------
  General SCF calculation program by
  Eric Jon Sundstrom, Paul Horn, Yuezhi Mao, Dmitri Zuev, Alec White,
  David Stuck, Shaama M.S., Shane Yost, Joonho Lee, David Small,
  Daniel Levine, Susi Lehtola, Hugh Burton, Evgeny Epifanovsky,
  Bang C. Huynh
 -----------------------------------------------------------------------
 Exchange:     0.2000 Hartree-Fock + 0.0800 Slater + 0.7200 B88
 Correlation:  0.1900 VWN1RPA + 0.8100 LYP
 Using SG-1 standard quadrature grid
 tid: 0x0 [2025.04.28-05:17:47.128] [INFO] Re-init GPU for small molecule mode
 tid: 0x0 [2025.04.28-05:17:47.255] [INFO] Detected device: CPU
 tid: 0x0 [2025.04.28-05:17:47.255] [INFO] Detected device: CUDA NVIDIA H100 80GB HBM3#0000:E4:00.0
 tid: 0x0 [2025.04.28-05:17:47.258] [INFO] Allocating 1 threads for GPU: CUDA NVIDIA H100 80GB HBM3#0000:E4:00.0 on node 0
 tid: 0x0 [2025.04.28-05:17:47.258] [INFO] Used GPU count: 1
 ---- BrianQC HCore successfully initialized ---- 
 ---- BrianQC J/K successfully initialized ---- 
 ---- BrianQC XC successfully initialized ---- 
BrianQC JK build time 1.0000000000 (s)
BrianQC XC build time 0.0000000000 (s)
 A restricted SCF calculation will be
 performed using DIIS
 SCF converges when DIIS error is below 1.0e-08
 ---------------------------------------
  Cycle       Energy         DIIS error
 ---------------------------------------
BrianQC JK build time 0.0e+00 (s)
BrianQC XC build time 1.0e+00 (s)
    1   -2776.4275896804      2.74e-04  
BrianQC JK build time 0.00e+00 (s)
BrianQC XC build time 1.00e+00 (s)
    2   -2776.4310420775      3.22e-05  
BrianQC JK build time 0.00e+00 (s)
BrianQC XC build time 1.00e+00 (s)
    3   -2776.4310607773      2.96e-05  
BrianQC JK build time 0.00e+00 (s)
BrianQC XC build time 1.00e+00 (s)
    4   -2776.4310745548      1.09e-05  
BrianQC JK build time 0.00e+00 (s)
BrianQC XC build time 1.00e+00 (s)
    5   -2776.4310766124      4.45e-06  
BrianQC JK build time 1.00e+00 (s)
BrianQC XC build time 0.00e+00 (s)
    6   -2776.4310770351      4.97e-07  
BrianQC JK build time 1.00e+00 (s)
BrianQC XC build time 0.00e+00 (s)
    7   -2776.4310770266      2.30e-07  
BrianQC JK build time 0.00e+00 (s)
BrianQC XC build time 1.00e+00 (s)
    8   -2776.4310770303      4.15e-08  
BrianQC JK build time 0.00e+00 (s)
BrianQC XC build time 1.00e+00 (s)
    9   -2776.4310770310      1.23e-08  
   10   -2776.4310770308      5.56e-09  Convergence criterion met
 ---------------------------------------
 SCF time:   CPU 433.23s  wall 22.00s 
 SCF   energy = -2776.43107703
 Total energy = -2776.43107703
 
 --------------------------------------------------------------
 
                    Orbital Energies (a.u.)
 --------------------------------------------------------------
 
 Alpha MOs
 -- Occupied --
-88.9417 -24.6990 -24.6986 -24.6981 -24.6979 -24.6975 -24.6969 -24.6941
-24.6735 -24.6697 -24.6682 -24.6671 -24.6666 -24.6482 -24.6258 -24.6239
-24.5913 -24.5910 -19.1716 -19.1291 -18.9626 -18.9619 -18.9616 -10.4088
-10.4085 -10.3788 -10.3747 -10.3362 -10.3216 -10.3027 -10.2351  -7.9628
 -5.9279  -5.9270  -5.9270  -1.2841  -1.2767  -1.2505  -1.2346  -1.2111
 -1.1929  -1.1912  -1.1897  -1.1887  -1.1880  -1.1687  -1.1607  -1.1594
 -1.1587  -1.1337  -1.1167  -1.0759  -1.0573  -1.0122  -0.9457  -0.8123
 -0.8114  -0.7861  -0.7362  -0.6822  -0.6648  -0.6598  -0.6210  -0.5974
 -0.5812  -0.5767  -0.5685  -0.5616  -0.5537  -0.5480  -0.5435  -0.5363
 -0.5332  -0.5297  -0.5273  -0.5114  -0.5061  -0.4947  -0.4746  -0.4701
 -0.4507  -0.4471  -0.4341  -0.4305  -0.4245  -0.4239  -0.4214  -0.4181
 -0.4153  -0.4034  -0.4021  -0.3978  -0.3965  -0.3934  -0.3925  -0.3859
 -0.3820  -0.3791  -0.3752  -0.3724  -0.3706  -0.3684  -0.3663  -0.3651
 -0.3623  -0.3508  -0.3483  -0.3422  -0.3418  -0.3360  -0.3344  -0.3251
 -0.3190  -0.3144  -0.3020  -0.2976  -0.2838  -0.2826  -0.2816  -0.2776
 -0.2746  -0.2569  -0.2497  -0.1680  -0.1676  -0.1380  -0.1362  -0.1281
 -0.0905
 -- Virtual --
  0.0969   0.1133   0.1386   0.1574   0.1981   0.2045   0.2114   0.2127
  0.2281   0.2371   0.2410   0.2464   0.2539   0.2587   0.2668   0.2717
  0.2776   0.2883   0.2998   0.3030   0.3082   0.3165   0.3231   0.3276
  0.3400   0.3591   0.3818   0.3884   0.4131   0.4279   0.4773   0.4831
  0.4903   0.5027   0.5133   0.5241   0.5315   0.5435   0.5498   0.5574
  0.5593   0.5752   0.5805   0.5995   0.6116   0.6158   0.6567   0.6656
  0.6694   0.6808   0.6908   0.6956   0.7020   0.7267   0.7409   0.7658
  0.7724   0.7985   0.8238   0.8871   0.9082   0.9178   0.9364   0.9480
  0.9623   0.9708   0.9842   0.9907   1.0081   1.0218   1.0281   1.0494
  1.0618   1.0766   1.0801   1.0956   1.1027   1.1120   1.1198   1.1286
  1.1385   1.1420   1.1448   1.1560   1.1611   1.1645   1.1821   1.1852
  1.1935   1.1986   1.2023   1.2084   1.2171   1.2243   1.2316   1.2456
  1.2556   1.2659   1.2737   1.2832   1.2902   1.2957   1.3102   1.3181
  1.3208   1.3293   1.3400   1.3475   1.3499   1.3531   1.3630   1.3660
  1.3688   1.3819   1.3858   1.3898   1.3926   1.3971   1.4034   1.4058
  1.4113   1.4183   1.4236   1.4247   1.4308   1.4400   1.4474   1.4551
  1.4577   1.4627   1.4641   1.4745   1.4787   1.4813   1.4897   1.4934
  1.4979   1.5026   1.5108   1.5174   1.5282   1.5321   1.5336   1.5475
  1.5520   1.5705   1.5999   1.6134   1.6279   1.6341   1.6406   1.6539
  1.6648   1.6735   1.6772   1.6829   1.7021   1.7060   1.7194   1.7271
  1.7348   1.7472   1.7537   1.7542   1.7625   1.7703   1.7860   1.7988
  1.8069   1.8273   1.8346   1.8515   1.8580   1.8603   1.8613   1.8719
  1.8729   1.8766   1.8800   1.8861   1.8918   1.8970   1.9013   1.9133
  1.9185   1.9253   1.9296   1.9420   1.9475   1.9546   1.9611   1.9627
  1.9706   1.9719   1.9765   1.9866   1.9883   1.9913   1.9933   2.0034
  2.0099   2.0110   2.0184   2.0293   2.0400   2.0445   2.0471   2.0585
  2.0648   2.0709   2.0799   2.0843   2.0895   2.0898   2.1008   2.1128
  2.1172   2.1213   2.1230   2.1279   2.1367   2.1395   2.1448   2.1562
  2.1737   2.1814   2.1901   2.1968   2.2054   2.2216   2.2254   2.2351
  2.2448   2.2471   2.2521   2.2588   2.2644   2.2864   2.2927   2.3042
  2.3304   2.3417   2.3592   2.3721   2.3769   2.3881   2.4184   2.4284
  2.4432   2.4476   2.4572   2.4716   2.4834   2.4870   2.4928   2.4961
  2.5074   2.5217   2.5261   2.5422   2.5726   2.6228   2.6365   2.6456
  2.6687   2.6804   2.7201   2.7215   2.7491   2.7559   2.8273   2.8422
  2.8548   2.8649   2.8787   2.8856   2.8897   2.8977   2.9328   2.9379
  2.9431   2.9444   2.9632   2.9639   2.9904   2.9927   3.0012   3.0287
  3.0548   3.0632   3.0848   3.0912   3.1013   3.1191   3.1282   3.1461
  3.1554   3.1626   3.1820   3.1924   3.1973   3.2187   3.2470   3.2519
  3.2676   3.2881   3.2924   3.3184   3.3418   3.9586   4.0345   4.0484
  4.1209   4.2176   4.2646   4.2946   4.3096   4.3646   4.4434   4.4686
  4.5216   4.6001   4.6348   4.7220   4.7569   4.8032   4.8251   4.9088
  4.9923   5.2592   5.3175   5.3563   5.4878   5.5137   5.6559   5.7144
  5.7988   5.9913   6.0518   6.7454
 --------------------------------------------------------------
 
          Ground-State Mulliken Net Atomic Charges

     Atom                 Charge (a.u.)
  ----------------------------------------
      1 C                     0.808451
      2 F                    -0.241933
      3 F                    -0.243090
      4 C                     0.377863
      5 O                    -0.531756
      6 C                     0.811794
      7 C                     0.430055
      8 F                    -0.290574
      9 F                    -0.253912
     10 C                     0.808165
     11 F                    -0.244419
     12 F                    -0.281001
     13 F                    -0.242087
     14 F                    -0.251930
     15 F                    -0.267450
     16 F                    -0.257402
     17 O                    -0.543429
     18 C                     0.782117
     19 C                     0.799613
     20 C                     0.321792
     21 F                    -0.257380
     22 F                    -0.256538
     23 S                     1.113779
     24 F                    -0.289553
     25 F                    -0.289398
     26 F                    -0.244845
     27 F                    -0.243993
     28 F                    -0.264067
     29 O                    -0.579720
     30 O                    -0.586352
     31 O                    -0.592801
  ----------------------------------------
  Sum of atomic charges =    -1.000000

 -----------------------------------------------------------------
                    Cartesian Multipole Moments
 -----------------------------------------------------------------
    Charge (ESU x 10^10)
                -4.8032
    Dipole Moment (Debye)
         X      22.8131      Y      -1.8129      Z       0.3765
       Tot      22.8881
    Quadrupole Moments (Debye-Ang)
        XX    -308.6511     XY      11.0836     YY    -179.1577
        XZ      -3.4042     YZ       0.5976     ZZ    -178.5017
    Octopole Moments (Debye-Ang^2)
       XXX     834.5854    XXY     -70.1548    XYY      72.8702
       YYY     -18.8904    XXZ      23.0158    XYZ      -0.3921
       YYZ       5.5203    XZZ      66.8855    YZZ      -3.2211
       ZZZ      -1.3222
    Hexadecapole Moments (Debye-Ang^3)
      XXXX  -17705.3938   XXXY     423.2541   XXYY   -2746.6256
      XYYY      90.4856   YYYY   -1767.6392   XXXZ    -150.6538
      XXYZ      17.4066   XYYZ     -34.7107   YYYZ      14.8493
      XXZZ   -2578.8073   XYZZ      20.1925   YYZZ    -460.5105
      XZZZ      -3.6160   YZZZ       8.7796   ZZZZ   -1007.0021
 -----------------------------------------------------------------
 Calculating analytic gradient of the SCF energy
 ---- BrianQC J/K successfully initialized ---- 
 Gradient of SCF Energy
            1           2           3           4           5           6
    1  -0.0000998  -0.0000806   0.0000802   0.0000248   0.0006226  -0.0000840
    2   0.0001742   0.0001940   0.0000888  -0.0002373   0.0009849  -0.0000684
    3   0.0003553  -0.0001866   0.0000910  -0.0002496   0.0002330  -0.0002641
            7           8           9          10          11          12
    1   0.0000198   0.0000367  -0.0001045   0.0001115  -0.0000052   0.0000410
[...]
   17      O      -1.2732467103     0.0634095048    -0.2050466954
   18      C      -2.5817122114    -0.2725090930     0.2378653089
   19      C      -0.0272539039    -1.9807667003     0.4207333255
   20      C      -3.5385764167     0.7927962367    -0.3432999964
   21      F      -2.8877990450    -1.5042818641    -0.2097450212
   22      F      -2.6145602422    -0.2914495932     1.5791741567
   23      S      -5.3830783293     0.5015591560    -0.0592067778
   24      F      -3.1644202576     1.9789213422     0.2123029490
   25      F      -3.2827891929     0.8586786413    -1.6794578406
   26      F      -0.8706281799    -2.4793975409     1.3295238065
   27      F      -0.3036342427    -2.5089098526    -0.7771197109
   28      F       1.2181840756    -2.3649760451     0.7689036768
   29      O      -5.9604806070     1.7678422748    -0.5565931635
   30      O      -5.6503440682    -0.6958968755    -0.8848137958
   31      O      -5.4443558103     0.2946843079     1.4050194608
 ----------------------------------------------------------------
 Molecular Point Group                 C1    NOp =  1
 Largest Abelian Subgroup              C1    NOp =  1
 Nuclear Repulsion Energy =        4361.07301574 hartrees
 There are      129 alpha and      129 beta electrons
 Applying Cartesian multipole field
    Component          Value
    ---------          -----
     (2,0,0)        1.00000E-12
     (0,2,0)        2.00000E-11
     (0,0,2)       -3.00000E-11
 Nucleus-field energy     = 1.8375049195e-08 hartrees
 Requested basis set is 6-31G(d)
 There are 125 shells and 469 basis functions
 A cutoff of  1.0D-12 yielded   3989 shell pairs
 There are     63531 function pairs
 Smallest overlap matrix eigenvalue = 1.31E-03
 Guess MOs from SCF MO coefficient file

 -----------------------------------------------------------------------
  General SCF calculation program by
  Eric Jon Sundstrom, Paul Horn, Yuezhi Mao, Dmitri Zuev, Alec White,
  David Stuck, Shaama M.S., Shane Yost, Joonho Lee, David Small,
  Daniel Levine, Susi Lehtola, Hugh Burton, Evgeny Epifanovsky,
  Bang C. Huynh
 -----------------------------------------------------------------------
 Exchange:     0.2000 Hartree-Fock + 0.0800 Slater + 0.7200 B88
 Correlation:  0.1900 VWN1RPA + 0.8100 LYP
 Using SG-1 standard quadrature grid
 tid: 0x0 [2025.04.28-05:20:46.071] [INFO] Re-init GPU for small molecule mode
 tid: 0x0 [2025.04.28-05:20:46.199] [INFO] Detected device: CPU
 tid: 0x0 [2025.04.28-05:20:46.199] [INFO] Detected device: CUDA NVIDIA H100 80GB HBM3#0000:E4:00.0
 tid: 0x0 [2025.04.28-05:20:46.202] [INFO] Allocating 1 threads for GPU: CUDA NVIDIA H100 80GB HBM3#0000:E4:00.0 on node 0
 tid: 0x0 [2025.04.28-05:20:46.202] [INFO] Used GPU count: 1
 ---- BrianQC HCore successfully initialized ---- 
 ---- BrianQC J/K successfully initialized ---- 
 ---- BrianQC XC successfully initialized ---- 
BrianQC JK build time 1.0000000000 (s)
BrianQC XC build time 0.0000000000 (s)
 A restricted SCF calculation will be
 performed using DIIS
 SCF converges when DIIS error is below 1.0e-08
 ---------------------------------------
  Cycle       Energy         DIIS error
 ---------------------------------------
BrianQC JK build time 1.0e+00 (s)
BrianQC XC build time 0.0e+00 (s)
    1   -2776.4303888286      1.31e-04  
BrianQC JK build time 1.00e+00 (s)
BrianQC XC build time 0.00e+00 (s)
    2   -2776.4311906589      1.56e-05  
BrianQC JK build time 0.00e+00 (s)
BrianQC XC build time 0.00e+00 (s)
    3   -2776.4311939940      1.63e-05  
BrianQC JK build time 0.00e+00 (s)
BrianQC XC build time 1.00e+00 (s)
    4   -2776.4311985529      4.85e-06  
BrianQC JK build time 0.00e+00 (s)
BrianQC XC build time 1.00e+00 (s)
    5   -2776.4311989239      2.31e-06  
BrianQC JK build time 1.00e+00 (s)
BrianQC XC build time 0.00e+00 (s)
    6   -2776.4311990294      2.15e-07  
BrianQC JK build time 1.00e+00 (s)
BrianQC XC build time 0.00e+00 (s)
    7   -2776.4311990317      7.38e-08  
BrianQC JK build time 1.00e+00 (s)
BrianQC XC build time 0.00e+00 (s)
    8   -2776.4311990308      2.10e-08  
    9   -2776.4311990311      7.72e-09  Convergence criterion met
 ---------------------------------------
 SCF time:   CPU 191.39s  wall 13.00s 
 SCF   energy = -2776.43119903
 Total energy = -2776.43119903
 
 --------------------------------------------------------------
 
                    Orbital Energies (a.u.)
 --------------------------------------------------------------
 
 Alpha MOs
 -- Occupied --
-88.9417 -24.6993 -24.6987 -24.6983 -24.6979 -24.6976 -24.6965 -24.6944
-24.6723 -24.6693 -24.6689 -24.6671 -24.6666 -24.6479 -24.6255 -24.6238
-24.5913 -24.5910 -19.1713 -19.1292 -18.9627 -18.9618 -18.9615 -10.4088
-10.4084 -10.3787 -10.3743 -10.3361 -10.3215 -10.3026 -10.2351  -7.9628
 -5.9279  -5.9270  -5.9270  -1.2840  -1.2766  -1.2504  -1.2344  -1.2113
 -1.1929  -1.1912  -1.1897  -1.1888  -1.1878  -1.1683  -1.1604  -1.1594
 -1.1585  -1.1336  -1.1165  -1.0759  -1.0573  -1.0121  -0.9457  -0.8122
 -0.8113  -0.7864  -0.7361  -0.6824  -0.6646  -0.6596  -0.6209  -0.5973
 -0.5812  -0.5768  -0.5686  -0.5612  -0.5538  -0.5479  -0.5434  -0.5358
 -0.5336  -0.5296  -0.5270  -0.5115  -0.5060  -0.4944  -0.4744  -0.4701
 -0.4506  -0.4470  -0.4339  -0.4306  -0.4242  -0.4241  -0.4214  -0.4181
 -0.4156  -0.4032  -0.4014  -0.3978  -0.3963  -0.3932  -0.3928  -0.3859
 -0.3819  -0.3791  -0.3753  -0.3724  -0.3708  -0.3684  -0.3663  -0.3650
 -0.3615  -0.3511  -0.3474  -0.3430  -0.3417  -0.3358  -0.3347  -0.3248
 -0.3188  -0.3143  -0.3019  -0.2976  -0.2830  -0.2826  -0.2816  -0.2782
 -0.2746  -0.2568  -0.2497  -0.1679  -0.1676  -0.1380  -0.1361  -0.1281
 -0.0905
 -- Virtual --
  0.0970   0.1129   0.1387   0.1576   0.1988   0.2047   0.2115   0.2129
  0.2276   0.2370   0.2412   0.2459   0.2547   0.2588   0.2669   0.2713
  0.2781   0.2883   0.2993   0.3032   0.3091   0.3164   0.3232   0.3276
  0.3415   0.3585   0.3812   0.3881   0.4131   0.4277   0.4774   0.4845
  0.4914   0.5038   0.5134   0.5245   0.5308   0.5426   0.5492   0.5572
  0.5598   0.5752   0.5811   0.6005   0.6089   0.6141   0.6565   0.6661
  0.6722   0.6800   0.6909   0.6951   0.7031   0.7268   0.7408   0.7661
  0.7713   0.7960   0.8305   0.8871   0.9075   0.9175   0.9365   0.9492
  0.9620   0.9710   0.9836   0.9890   1.0072   1.0246   1.0306   1.0475
  1.0618   1.0747   1.0819   1.0970   1.1014   1.1133   1.1196   1.1274
  1.1382   1.1420   1.1437   1.1563   1.1618   1.1636   1.1800   1.1864
  1.1934   1.1990   1.2023   1.2087   1.2171   1.2251   1.2316   1.2465
  1.2565   1.2659   1.2732   1.2857   1.2882   1.2986   1.3108   1.3205
  1.3219   1.3299   1.3388   1.3467   1.3493   1.3530   1.3647   1.3669
  1.3708   1.3824   1.3852   1.3905   1.3922   1.3964   1.4039   1.4049
  1.4090   1.4178   1.4228   1.4253   1.4308   1.4406   1.4474   1.4569
  1.4584   1.4644   1.4683   1.4728   1.4763   1.4828   1.4875   1.4916
  1.4969   1.5024   1.5114   1.5181   1.5259   1.5321   1.5350   1.5484
  1.5500   1.5718   1.5986   1.6141   1.6238   1.6350   1.6403   1.6535
  1.6661   1.6734   1.6772   1.6809   1.7014   1.7075   1.7186   1.7269
  1.7363   1.7473   1.7519   1.7554   1.7640   1.7681   1.7863   1.7991
  1.8028   1.8289   1.8356   1.8511   1.8577   1.8592   1.8625   1.8709
  1.8742   1.8756   1.8789   1.8872   1.8930   1.8971   1.8984   1.9137
  1.9189   1.9259   1.9306   1.9422   1.9475   1.9546   1.9603   1.9621
  1.9710   1.9747   1.9764   1.9867   1.9886   1.9912   1.9934   2.0034
  2.0087   2.0103   2.0182   2.0299   2.0409   2.0440   2.0472   2.0581
  2.0641   2.0724   2.0801   2.0833   2.0889   2.0895   2.0988   2.1130
  2.1145   2.1177   2.1226   2.1278   2.1367   2.1395   2.1447   2.1533
  2.1715   2.1815   2.1891   2.1985   2.2051   2.2212   2.2271   2.2333
  2.2449   2.2484   2.2517   2.2580   2.2643   2.2850   2.2913   2.3050
  2.3299   2.3416   2.3600   2.3724   2.3768   2.3888   2.4183   2.4274
  2.4427   2.4501   2.4582   2.4732   2.4832   2.4897   2.4942   2.4963
  2.5065   2.5201   2.5267   2.5422   2.5784   2.6221   2.6368   2.6477
  2.6680   2.6827   2.7130   2.7217   2.7500   2.7590   2.8278   2.8424
  2.8606   2.8682   2.8779   2.8839   2.8879   2.8979   2.9319   2.9394
  2.9442   2.9486   2.9629   2.9649   2.9910   2.9929   3.0007   3.0285
  3.0564   3.0651   3.0846   3.0908   3.1031   3.1175   3.1284   3.1460
  3.1566   3.1582   3.1852   3.1941   3.2003   3.2204   3.2473   3.2521
  3.2687   3.2870   3.2915   3.3203   3.3413   3.9581   4.0352   4.0485
  4.1191   4.2172   4.2664   4.2925   4.3068   4.3647   4.4469   4.4644
  4.5215   4.5978   4.6375   4.7223   4.7545   4.8071   4.8250   4.9083
  4.9972   5.2630   5.3045   5.3476   5.4760   5.5339   5.6699   5.7140
  5.8171   6.0051   6.0635   6.8122
 --------------------------------------------------------------
 
          Ground-State Mulliken Net Atomic Charges

     Atom                 Charge (a.u.)
  ----------------------------------------
      1 C                     0.809547
      2 F                    -0.240803
      3 F                    -0.244171
      4 C                     0.377036
      5 O                    -0.531628
      6 C                     0.812444
      7 C                     0.429907
      8 F                    -0.290724
      9 F                    -0.253074
     10 C                     0.809001
     11 F                    -0.243245
     12 F                    -0.280866
     13 F                    -0.243571
     14 F                    -0.252781
     15 F                    -0.267502
     16 F                    -0.259494
     17 O                    -0.543535
     18 C                     0.782441
     19 C                     0.799785
     20 C                     0.321918
     21 F                    -0.257507
     22 F                    -0.256734
     23 S                     1.113635
     24 F                    -0.289514
     25 F                    -0.289456
     26 F                    -0.244190
     27 F                    -0.244682
     28 F                    -0.263426
     29 O                    -0.579627
     30 O                    -0.586427
     31 O                    -0.592760
  ----------------------------------------
  Sum of atomic charges =    -1.000000

 -----------------------------------------------------------------
                    Cartesian Multipole Moments
 -----------------------------------------------------------------
    Charge (ESU x 10^10)
                -4.8032
    Dipole Moment (Debye)
         X      22.7726      Y      -2.0665      Z       0.1512
       Tot      22.8667
    Quadrupole Moments (Debye-Ang)
        XX    -307.8291     XY      12.7056     YY    -179.4862
        XZ      -2.0088     YZ       0.4863     ZZ    -178.4242
    Octopole Moments (Debye-Ang^2)
       XXX     829.4461    XXY     -78.8874    XYY      74.3016
       YYY     -22.1616    XXZ      15.1757    XYZ       0.2579
       YYZ       4.6243    XZZ      66.1872    YZZ      -4.0407
       ZZZ      -3.7764
    Hexadecapole Moments (Debye-Ang^3)
      XXXX  -17601.9216   XXXY     496.7144   XXYY   -2756.9596
      XYYY     137.1231   YYYY   -1823.9132   XXXZ     -83.0792
      XXYZ      11.5503   XYYZ     -20.7657   YYYZ      10.8484
      XXZZ   -2561.0907   XYZZ      34.3841   YYZZ    -465.4881
      XZZZ      34.1200   YZZZ       3.7727   ZZZZ    -987.7793
 -----------------------------------------------------------------
 Calculating analytic gradient of the SCF energy
 ---- BrianQC J/K successfully initialized ---- 
 Gradient of SCF Energy
            1           2           3           4           5           6
    1  -0.0000236  -0.0000448  -0.0000307   0.0000650  -0.0000302   0.0000179
    2  -0.0001085   0.0000327   0.0000713   0.0000337   0.0000074  -0.0000560
    3   0.0000611  -0.0000008  -0.0000518  -0.0000526  -0.0000025  -0.0000389
            7           8           9          10          11          12
    1  -0.0000251   0.0000371   0.0000439   0.0001011  -0.0000364  -0.0000213
    2  -0.0000315   0.0000205  -0.0000067  -0.0000007  -0.0000411   0.0000219
    3  -0.0000162  -0.0000207  -0.0000589  -0.0000568   0.0000477   0.0000296
           13          14          15          16          17          18
    1  -0.0000609  -0.0000476  -0.0000221   0.0000246   0.0000412   0.0000003
    2   0.0000161   0.0000250  -0.0000267   0.0000390   0.0000569   0.0000055
    3  -0.0000208   0.0000299   0.0000598   0.0000308  -0.0000214  -0.0000235
           19          20          21          22          23          24
    1  -0.0000104   0.0000205  -0.0000499  -0.0000322  -0.0000441   0.0000114
    2  -0.0000403  -0.0000206   0.0000258   0.0000161  -0.0000008   0.0000002
    3   0.0000998  -0.0000270   0.0000132   0.0000450   0.0000091   0.0000137
           25          26          27          28          29          30
    1  -0.0000172   0.0000756   0.0000257  -0.0000096   0.0000122   0.0000099
    2  -0.0000016   0.0000314  -0.0000143  -0.0000454   0.0000075  -0.0000073
    3   0.0000265  -0.0000404  -0.0000683   0.0000203  -0.0000049   0.0000078
           31
    1   0.0000197
    2  -0.0000098
    3   0.0000112
 Max gradient component =       1.085E-04
 RMS gradient           =       3.807E-05
 Gradient time:  CPU 10.81 s  wall 8.99 s

     Step 10	:
        Energy is -2776.4311990311
                            Maximum         Tolerance       Converged?
         Gradient           1.68644092e-04	3.00000000e-04	true
         Displacement       3.25366060e-02	1.20000000e-03	false
         Energy change      8.78830178e-07	1.00000000e-06	true

	 Optimization Converged in 10 cycles

 *****************************************************
             End of BFGS Algorithm
 *****************************************************
		----------------------------------
		   Verification of Optimization
		----------------------------------

 Eigenvalues of Hessian in Optimization Verification
   0.00100958   0.00197386   0.00268674   0.00313436   0.00358278
   0.00465392   0.00684451   0.01374757   0.01599650   0.02350392
   0.04885419   0.05300760   0.05351007   0.06834262   0.06997066
   0.07276736   0.08064828   0.08146405   0.08370776   0.08551302
   0.08619476   0.08693767   0.08728607   0.08773252   0.08812162
   0.09758729   0.10342184   0.10834875   0.10948048   0.11122731
   0.13714535   0.16706375   0.17512161   0.17690134   0.19075246
   0.19549973   0.19904102   0.20203699   0.20475408   0.21413579
   0.22579058   0.24208049   0.24435035   0.24701113   0.24971258
   0.25000000   0.25000000   0.25000000   0.25000000   0.25000000
   0.25000000   0.25133623   0.25225100   0.25658718   0.26073111
   0.26090913   0.26849660   0.27065884   0.27619188   0.28021609
   0.29751126   0.37894495   0.38866321   0.44459150   0.46342794
   0.48056350   0.50344056   0.52003528   0.52482047   0.52543508
   0.53467715   0.54164295   0.55104746   0.55724229   0.56370779
   0.56585243   0.56760735   0.56893130   0.57105883   0.57474063
   0.57718323   0.58128678   0.58308343   0.58578339   0.83623342
   0.84092799   0.84472342

 Found a minimum
		---------------------------------
		       End of Verification
		---------------------------------

 Final energy is -2776.431199031087

	******************************
	**  OPTIMIZATION CONVERGED  **
	******************************
 ----------------------------------------------------------------
             Standard Nuclear Orientation (Angstroms)
    I     Atom           X                Y                Z
 ----------------------------------------------------------------
    1      C       4.0278623841     1.4989074496     0.7094184883
    2      F       3.1926787936     2.5293780996     0.8681398906
    3      F       4.2244550183     0.9070573081     1.8941847414
    4      C       3.4195197346     0.4983761711    -0.3086572476
    5      O       2.2119274919     0.0447976727     0.2235914477
    6      C       1.0179740166     0.2358895055    -0.4561231269
    7      C      -0.1307200962    -0.4221470999     0.3786343052
    8      F       0.0304615695     0.0012468664     1.6746463215
    9      F       5.2058099776     1.9650320906     0.2624303107
   10      C       4.3037607423    -0.7450864308    -0.5901432204
   11      F       4.5025830867    -1.4467524679     0.5323473315
   12      F       3.2851974815     1.1679784672    -1.4873710796
   13      F       3.6980171420    -1.5255290350    -1.4907455152
   14      F       5.4980417791    -0.3718068285    -1.0787774050
   15      F       1.0659804835    -0.3187196045    -1.6877156270
   16      F       0.7749738553     1.5500187840    -0.6020085655
   17      O      -1.2732467103     0.0634095048    -0.2050466954
   18      C      -2.5817122114    -0.2725090930     0.2378653089
   19      C      -0.0272539039    -1.9807667003     0.4207333255
   20      C      -3.5385764167     0.7927962367    -0.3432999964
   21      F      -2.8877990450    -1.5042818641    -0.2097450212
   22      F      -2.6145602422    -0.2914495932     1.5791741567
   23      S      -5.3830783293     0.5015591560    -0.0592067778
   24      F      -3.1644202576     1.9789213422     0.2123029490
   25      F      -3.2827891929     0.8586786413    -1.6794578406
   26      F      -0.8706281799    -2.4793975409     1.3295238065
   27      F      -0.3036342427    -2.5089098526    -0.7771197109
   28      F       1.2181840756    -2.3649760451     0.7689036768
   29      O      -5.9604806070     1.7678422748    -0.5565931635
   30      O      -5.6503440682    -0.6958968755    -0.8848137958
   31      O      -5.4443558103     0.2946843079     1.4050194608
 ----------------------------------------------------------------
 Molecular Point Group                 C1    NOp =  1
 Largest Abelian Subgroup              C1    NOp =  1
 Nuclear Repulsion Energy =        4361.07301574 hartrees
 There are      129 alpha and      129 beta electrons

Z-matrix Print:
$molecule
-1 1
S 
O  1 1.477924
O  1 1.478837 2 115.803142
O  1 1.480037 2 115.882933 3 -140.130477 0
C  1 1.888840 2 101.466051 3 110.146627 0
F  5 1.362015 1 109.779503 2 -66.651455 0
F  5 1.362197 1 109.946080 2 51.833407 0
C  5 1.545386 1 116.218089 2 172.293085 0
F  8 1.341845 5 111.745699 1 -65.911110 0
F  8 1.345849 5 111.408995 1 55.385106 0
O  8 1.421652 5 106.847944 1 174.075200 0
C  11 1.371793 8 123.392105 5 162.049395 0
F  12 1.372913 11 112.971779 8 -64.745006 0
C  12 1.562617 11 114.813285 8 56.878091 0
F  14 1.336343 12 110.408449 11 -72.871801 0
F  14 1.337974 12 110.850234 11 48.449426 0
F  14 1.349057 12 110.618912 11 168.249219 0
C  12 1.565034 11 103.623077 8 -179.846413 0
F  18 1.344346 12 109.646802 11 47.197493 0
F  18 1.351561 12 109.850717 11 -71.313644 0
O  18 1.387102 12 108.208590 11 167.284808 0
C  21 1.395457 18 120.876702 12 178.229939 0
F  22 1.362269 21 113.857492 18 2.562986 0
C  22 1.551553 21 107.570753 18 -115.878777 0
F  24 1.336825 22 109.381885 21 61.790269 0
F  24 1.338600 22 110.646984 21 -58.349075 0
F  24 1.343283 22 110.486021 21 -178.632662 0
C  22 1.551651 21 107.374430 18 120.595412 0
F  28 1.335887 22 109.283317 21 -61.181910 0
F  28 1.338882 22 110.678667 21 59.022037 0
F  28 1.343366 22 110.438847 21 179.327617 0
$end

 -----------------------------------------------------------------------
                  END OF GEOMETRY OPTIMIZER USING LIBOPT3               
 -----------------------------------------------------------------------
 Total job time:  325.52s(wall), 4163.23s(cpu) 
 Mon Apr 28 05:21:07 2025

        *************************************************************
        *                                                           *
        *  Thank you very much for using Q-Chem.  Have a nice day.  *
        *                                                           *
        *************************************************************


 tid: 0x0 [2025.04.28-05:21:07.485] [INFO] Begin brianAPIRelease
 tid: 0x0 [2025.04.28-05:21:08.535] [INFO] End brianAPIRelease
