
Running Job 1 of 1 input.com
qchem input.com_2060291.0 /scratch/hlong/8618292/qchem2060291/ 1
/nopt/nrel/apps/software/q-chem/6.2/exe/qcprog.exe_s input.com_2060291.0 /scratch/hlong/8618292/qchem2060291/
                  Welcome to Q-Chem
     A Quantum Leap Into The Future Of Chemistry


 Q-Chem 6.2, Q-Chem, Inc., Pleasanton, CA (2024)

 License issued to: National Renewable Energy Laboratory (site)

 E. Epifanovsky,  A. T. B. Gilbert,  Xintian Feng,  Joonho Lee,  Yuezhi Mao,  
 N. Mardirossian,  P. Pokhilko,  A. White,  M. Wormit,  M. P. Coons,  
 A. L. Dempwolff,  Zhengting Gan,  D. Hait,  P. R. Horn,  L. D. Jacobson,  
 I. Kaliman,  J. Kussmann,  A. W. Lange,  Ka Un Lao,  D. S. Levine,  Jie Liu,  
 S. C. McKenzie,  A. F. Morrison,  K. D. Nanda,  F. Plasser,  D. R. Rehn,  
 M. L. Vidal,  Zhi-Qiang You,  Ying Zhu,  Huseyin Aksu,  B. Alam,  
 B. Albrecht,  A. Aldossary,  E. Alguire,  J. H. Andersen,  
 J. E. Arias-Martinez,  V. Athavale,  D. Barton,  K. Begam,  A. Behn,  
 N. Bellonzi,  Y. A. Bernard,  E. J. Berquist,  H. Burton,  A. Carreras,  
 K. Carter-Fenk,  Mathew Chow,  Romit Chakraborty,  Chandrima Chakravarty,  
 Junhan Chen,  A. D. Chien,  K. D. Closser,  V. Cofer-Shabica,  L. Cunha,  
 S. Dasgupta,  Jia Deng,  Joseph Dickinson,  M. de Wergifosse,  
 M. Diedenhofen,  Hainam Do,  Wenjie Dou,  S. Ehlert,  Po-Tung Fang,  
 S. Fatehi,  Qingguo Feng,  Jonathan Fetherolf,  T. Friedhoff,  
 Thomas Froitzheim,  Sarai Folkestad,  B. Ganoe,  J. Gayvert,  Qinghui Ge,  
 G. Gidofalvi,  M. Gimferrer,  M. Goldey,  Montgomery Gray,  J. Gomes,  
 C. Gonzalez-Espinoza,  S. Gulania,  A. Gunina,  J. A. Gyamfi,  
 M. W. D. Hanson-Heine,  P. H. P. Harbach,  A. W. Hauser,  M. F. Herbst,  
 M. Hernandez Vera,  M. Hodecker,  Z. C. Holden,  S. Houck,  Xunkun Huang,  
 Kerwin Hui,  B. C. Huynh,  K. Ikeda,  M. Ivanov,  Nayanthara K. Jayadev,  
 Hyunjun Ji,  Zuxin Jin,  Hanjie Jiang,  Subrata Jana,  B. Kaduk,  
 S. Kaehler,  R. Kang,  K. Khistyaev,  Jaehoon Kim,  Yongbin Kim,  
 P. Klunzinger,  Z. Koczor-Benda,  Joong Hoon Koh,  D. Kosenkov,  
 Saikiran Kotaru,  L. Koulias,  T. Kowalczyk,  C. M. Krauter,  K. Kue,  
 A. Kunitsa,  T. Kus,  A. Landau,  K. V. Lawler,  D. Lefrancois,  S. Lehtola,  
 Rain Li,  Shaozhi Li,  Tao E. Li,  Yi-Pei Li,  Jiashu Liang,  M. Liebenthal,  
 Hung-Hsuan Lin,  You-Sheng Lin,  Fenglai Liu,  Kuan-Yu Liu,  Xiao Liu,  
 M. Loipersberger,  A. Luenser,  C. Malbon,  Aniket Mandal,  Manisha,  
 A. Manjanath,  P. Manohar,  E. Mansoor,  S. F. Manzer,  Shan-Ping Mao,  
 A. V. Marenich,  T. Markovich,  S. Mason,  F. Matz,  S. A. Maurer,  
 Samuel May,  Alexandra McIsaac,  P. F. McLaughlin,  M. F. S. J. Menger,  
 J.-M. Mewes,  S. A. Mewes,  P. Morgante,  Mohammad Mostafanejad,  
 Madhubani Mukherjee,  J. W. Mullinax,  Quyen Nguyen,  Avik Kumar Ojha,  
 K. J. Oosterbaan,  Eno Paenurk,  Xiaoliang Pan,  G. Paran,  V. Parravicini,  
 Alexander C. Paul,  Suranjan K. Paul,  F. Pavosevic,  Zheng Pei,  S. Prager,  
 E. I. Proynov,  E. Ramos,  B. Rana,  A. E. Rask,  A. Rettig,  R. M. Richard,  
 F. Rob,  E. Rossomme,  T. Scheele,  M. Scheurer,  M. Schneider,  
 P. E. Schneider,  Tim K. Schramm,  N. Sergueev,  S. M. Sharada,  
 Hengyuan Shen,  W. Skomorowski,  D. W. Small,  C. J. Stein,  
 Alistair J. Sterling,  Yingli Su,  Yu-Chuan Su,  E. J. Sundstrom,  
 J. Talbot,  Zhen Tao,  J. Thirman,  Hung-Yi Tsai,  T. Tsuchimochi,  
 N. M. Tubman,  C. Utku,  S. P. Veccham,  O. Vydrov,  Rahel Weiss,  
 J. Wenzel,  Jonathan Wong,  J. Witte,  H. Wu,  Yanze Wu,  A. Yamada,  
 Chou-Hsun Yang,  Kun Yao,  S. Yeganeh,  S. R. Yost,  Qi Yu,  A. Zech,  
 F. Zeller,  Chongxiao Zhao,  Igor Ying Zhang,  Xing Zhang,  Yu Zhang,  
 D. Zuev,  A. Aspuru-Guzik,  A. T. Bell,  N. A. Besley,  K. B. Bravaya,  
 B. R. Brooks,  D. Casanova,  Jeng-Da Chai,  Hsing-Ta Chen,  S. Coriani,  
 C. J. Cramer,  A. E. DePrince, III,  R. A. DiStasio Jr.,  A. Dreuw,  
 B. D. Dunietz,  T. R. Furlani,  W. A. Goddard III,  S. Grimme,  
 S. Hammes-Schiffer,  T. Head-Gordon,  W. J. Hehre,  Chao-Ping Hsu,  
 T.-C. Jagau,  Yousung Jung,  A. Klamt,  Jing Kong,  D. S. Lambrecht,  
 Xiangyuan Li,  WanZhen Liang,  N. J. Mayhall,  C. W. McCurdy,  J. B. Neaton,  
 T. Neudecker,  C. Ochsenfeld,  J. A. Parkhill,  R. Peverati,  
 V. A. Rassolov,  Haisheng Ren,  Yihan Shao,  L. V. Slipchenko,  
 R. P. Steele,  J. E. Subotnik,  A. J. W. Thom,  A. Tkatchenko,  
 D. G. Truhlar,  T. Van Voorhis,  Fan Wang,  T. A. Wesolowski,  K. B. Whaley,  
 H. L. Woodcock III,  P. M. Zimmerman,  S. Faraji,  P. M. W. Gill,  
 M. Head-Gordon,  J. M. Herbert,  A. I. Krylov

 Contributors to earlier versions of Q-Chem not listed above: 
 R. D. Adamson,  B. Austin,  R. Baer,  J. Baker,  G. J. O. Beran,  
 K. Brandhorst,  S. T. Brown,  E. F. C. Byrd,  Arup K. Chakraborty,  
 G. K. L. Chan,  Chun-Min Chang,  Yunqing Chen,  C.-L. Cheng,  
 Siu Hung Chien,  D. M. Chipman,  D. L. Crittenden,  H. Dachsel,  
 R. J. Doerksen,  A. D. Dutoi,  R. G. Edgar,  J. Fosso-Tande,  
 L. Fusti-Molnar,  D. Ghosh,  A. Ghysels,  A. Golubeva-Zadorozhnaya,  
 J. Gonthier,  M. S. Gordon,  S. R. Gwaltney,  G. Hawkins,  J. E. Herr,  
 A. Heyden,  S. Hirata,  E. G. Hohenstein,  G. Kedziora,  F. J. Keil,  
 C. Kelley,  Jihan Kim,  R. A. King,  R. Z. Khaliullin,  P. P. Korambath,  
 W. Kurlancheek,  A. Laurent,  A. M. Lee,  M. S. Lee,  S. V. Levchenko,  
 Ching Yeh Lin,  D. Liotard,  E. Livshits,  R. C. Lochan,  I. Lotan,  
 L. A. Martinez-Martinez,  P. E. Maslen,  N. Nair,  D. P. O'Neill,  
 D. Neuhauser,  E. Neuscamman,  C. M. Oana,  R. Olivares-Amaya,  R. Olson,  
 T. M. Perrine,  B. Peters,  P. A. Pieniazek,  A. Prociuk,  Y. M. Rhee,  
 J. Ritchie,  M. A. Rohrdanz,  E. Rosta,  N. J. Russ,  H. F. Schaefer III,  
 M. W. Schmidt,  N. E. Schultz,  S. Sharma,  N. Shenvi,  C. D. Sherrill,  
 A. C. Simmonett,  A. Sodt,  T. Stein,  D. Stuck,  K. S. Thanthiriwatte,  
 V. Vanovschi,  L. Vogt,  Tao Wang,  A. Warshel,  M. A. Watson,  
 C. F. Williams,  Q. Wu,  X. Xu,  Jun Yang,  W. Zhang,  Yan Zhao

   Please cite Q-Chem as follows:
  "Software for the frontiers of quantum chemistry:
   An overview of developments in the Q-Chem 5 package"
   J. Chem. Phys. 155, 084801 (2021)
   https://doi.org/10.1063/5.0055522 (open access)

 Q-Chem 6.2.0 for Intel X86 EM64T Linux

 Parts of Q-Chem use Armadillo 9.900.5 (Nocturnal Misbehaviour).
 http://arma.sourceforge.net/

 Q-Chem begins on Fri Apr 25 15:49:47 2025  

 Host: 
0

     Scratch files written to /scratch/hlong/8618292/qchem2060291//
 May224 |scratch|qcdevops|jenkins|workspace|build_RNUM -1
 Processing $rem in /nopt/nrel/apps/software/q-chem/6.2/config/preferences:
 Processing $rem in /home/hlong/.qchemrc:

 Checking the input file for inconsistencies... 	...done.

--------------------------------------------------------------
User input:
--------------------------------------------------------------
$molecule
-1 1
C          4.11643       -1.48041       -0.71113
F          3.39409       -2.59960       -0.81726
F          4.22860       -0.91587       -1.91896
C          3.42207       -0.51789        0.28967
O          2.19271       -0.17339       -0.26905
C          1.01327       -0.29967        0.45351
C         -0.13361        0.37168       -0.37411
F          0.01715       -0.04365       -1.67355
F          5.34489       -1.80262       -0.27209
C          4.22273        0.78391        0.56775
F          4.46092        1.43773       -0.57729
F          3.31939       -1.18796        1.47185
F          3.52926        1.58045        1.38565
F          5.39884        0.49440        1.14858
F          1.10896        0.29403        1.66422
F          0.73814       -1.59933        0.65313
O         -1.28286       -0.10001        0.20694
C         -2.58410        0.27338       -0.22864
C         -0.00545        1.92942       -0.40146
C         -3.56377       -0.78378        0.32897
F         -2.86180        1.50249        0.24397
F         -2.61581        0.32085       -1.56915
S         -5.40120       -0.42965        0.07649
F         -3.22844       -1.95967       -0.27102
F         -3.29595       -0.90240        1.65906
F         -0.81928        2.44862       -1.32551
F         -0.30038        2.45428        0.79272
F          1.25554        2.29549       -0.71642
O         -6.01000       -1.70152        0.51923
O         -5.62749        0.73480        0.95974
O         -5.46900       -0.15244       -1.37593
$end

$rem
job_type=opt
basis=6-311++G(2d,2p)
method=b3lyp
$end
--------------------------------------------------------------
 ----------------------------------------------------------------
             Standard Nuclear Orientation (Angstroms)
    I     Atom           X                Y                Z
 ----------------------------------------------------------------
    1      C       4.1164293037     1.4804112804     0.7111283217
    2      F       3.3940892428     2.5996013103     0.8172575923
    3      F       4.2285995215     0.9158721909     1.9189587271
    4      C       3.4220692212     0.5178904848    -0.2896708558
    5      O       2.1927093276     0.1733908182     0.2690495840
    6      C       1.0132692118     0.2996701973    -0.4535103354
    7      C      -0.1336106194    -0.3716792626     0.3741103366
    8      F       0.0171495449     0.0436517190     1.6735500037
    9      F       5.3448892165     1.8026210364     0.2720878986
   10      C       4.2227292691    -0.7839096682    -0.5677500015
   11      F       4.4609194837    -1.4377287960     0.5772904519
   12      F       3.3193889999     1.1879595941    -1.4718513415
   13      F       3.5292592023    -1.5804503271    -1.3856493033
   14      F       5.3988391631    -0.4944000218    -1.1485803924
   15      F       1.1089590729    -0.2940307011    -1.6642199058
   16      F       0.7381390932     1.5993300293    -0.6531312660
   17      O      -1.2828607379     0.1000102244    -0.2069398455
   18      C      -2.5841006477    -0.2733795392     0.2286406266
   19      C      -0.0054505087    -1.9294192334     0.4014614819
   20      C      -3.5637708029     0.7837799769    -0.3289700183
   21      F      -2.8618006337    -1.5024899114    -0.2439684135
   22      F      -2.6158104456    -0.3208485393     1.5691506668
   23      S      -5.4012007412     0.4296500398    -0.0764894810
   24      F      -3.2284407944     1.9596704484     0.2710190530
   25      F      -3.2959510083     0.9023990011    -1.6590601467
   26      F      -0.8192803361    -2.4486185984     1.3255119907
   27      F      -0.3003806499    -2.4542801462    -0.7927180820
   28      F       1.2555395631    -2.2954889116     0.7164215685
   29      O      -6.0100008940     1.7015196672    -0.5192303414
   30      O      -5.6274907924    -0.7348006359    -0.9597385771
   31      O      -5.4690005067     0.1524411208     1.3759307362
 ----------------------------------------------------------------
 Molecular Point Group                 C1    NOp =  1
 Largest Abelian Subgroup              C1    NOp =  1
 Nuclear Repulsion Energy =        4364.44217231 hartrees
 There are      129 alpha and      129 beta electrons
 Requested basis set is 6-311++G(2d,2p)
 There are 224 shells and 845 basis functions

 Total QAlloc Memory Limit 224000 MB
 Mega-Array Size       188 MB
 MEM_STATIC part       192 MB

 -----------------------------------------------------------------------
                STARTING GEOMETRY OPTIMIZER USING LIBOPT3
                by Peter F. McLaughlin, Yu Zhang, Evgeny Epifanovsky
 -----------------------------------------------------------------------

              Initial Energy and Gradient Calculation
   -- Checking Topology for Ill-Behaving Coordinates --

 -------------------------------------------
   Coordinate       |  Removed | Additions 
 -------------------------------------------
	Bonds                     0          0
	Angles                    0          0
	Torsions                  0          0
	Co-Linear Type5s          0          0
	Co-Linear Type6s          0          0
 -------------------------------------------
     Done Checking Topology
 ----------------------------------------------------------------
             Standard Nuclear Orientation (Angstroms)
    I     Atom           X                Y                Z
 ----------------------------------------------------------------
    1      C       4.1164293037     1.4804112804     0.7111283217
    2      F       3.3940892428     2.5996013103     0.8172575923
    3      F       4.2285995215     0.9158721909     1.9189587271
    4      C       3.4220692212     0.5178904848    -0.2896708558
    5      O       2.1927093276     0.1733908182     0.2690495840
    6      C       1.0132692118     0.2996701973    -0.4535103354
    7      C      -0.1336106194    -0.3716792626     0.3741103366
    8      F       0.0171495449     0.0436517190     1.6735500037
    9      F       5.3448892165     1.8026210364     0.2720878986
   10      C       4.2227292691    -0.7839096682    -0.5677500015
   11      F       4.4609194837    -1.4377287960     0.5772904519
   12      F       3.3193889999     1.1879595941    -1.4718513415
   13      F       3.5292592023    -1.5804503271    -1.3856493033
   14      F       5.3988391631    -0.4944000218    -1.1485803924
   15      F       1.1089590729    -0.2940307011    -1.6642199058
   16      F       0.7381390932     1.5993300293    -0.6531312660
   17      O      -1.2828607379     0.1000102244    -0.2069398455
   18      C      -2.5841006477    -0.2733795392     0.2286406266
   19      C      -0.0054505087    -1.9294192334     0.4014614819
   20      C      -3.5637708029     0.7837799769    -0.3289700183
   21      F      -2.8618006337    -1.5024899114    -0.2439684135
   22      F      -2.6158104456    -0.3208485393     1.5691506668
   23      S      -5.4012007412     0.4296500398    -0.0764894810
   24      F      -3.2284407944     1.9596704484     0.2710190530
   25      F      -3.2959510083     0.9023990011    -1.6590601467
   26      F      -0.8192803361    -2.4486185984     1.3255119907
   27      F      -0.3003806499    -2.4542801462    -0.7927180820
   28      F       1.2555395631    -2.2954889116     0.7164215685
   29      O      -6.0100008940     1.7015196672    -0.5192303414
   30      O      -5.6274907924    -0.7348006359    -0.9597385771
   31      O      -5.4690005067     0.1524411208     1.3759307362
 ----------------------------------------------------------------
 Molecular Point Group                 C1    NOp =  1
 Largest Abelian Subgroup              C1    NOp =  1
 Nuclear Repulsion Energy =        4364.44217231 hartrees
 There are      129 alpha and      129 beta electrons
 Requested basis set is 6-311++G(2d,2p)
 There are 224 shells and 845 basis functions
 A cutoff of  1.0D-12 yielded  14748 shell pairs
 There are    222705 function pairs (    251965 Cartesian)
 Smallest overlap matrix eigenvalue = 4.18E-06

 Scale SEOQF with 1.000000e-02/1.000000e-01/1.000000e-01

 Standard Electronic Orientation quadrupole field applied
 Nucleus-field energy     =     0.0000000181 hartrees
 Guess from superposition of atomic densities
 Warning:  Energy on first SCF cycle will be non-variational
 SAD guess density has 257.000000 electrons

 -----------------------------------------------------------------------
  General SCF calculation program by
  Eric Jon Sundstrom, Paul Horn, Yuezhi Mao, Dmitri Zuev, Alec White,
  David Stuck, Shaama M.S., Shane Yost, Joonho Lee, David Small,
  Daniel Levine, Susi Lehtola, Hugh Burton, Evgeny Epifanovsky,
  Bang C. Huynh
 -----------------------------------------------------------------------
 Exchange:     0.2000 Hartree-Fock + 0.0800 Slater + 0.7200 B88
 Correlation:  0.1900 VWN1RPA + 0.8100 LYP
 Using SG-1 standard quadrature grid
 using 104 threads for integral computing
 -------------------------------------------------------
 OpenMP Integral computing Module                
 Release: version 1.0, May 2013, Q-Chem Inc. Pittsburgh 
 -------------------------------------------------------
 A restricted SCF calculation will be
 performed using DIIS
 SCF converges when DIIS error is below 1.0e-08
 ---------------------------------------
  Cycle       Energy         DIIS error
 ---------------------------------------
    1   -2782.8985880949      1.94e-02  
    2   -2776.5786457072      3.58e-03  
    3   -2772.6497051945      7.55e-03  
    4   -2777.1760714510      1.45e-03  
    5   -2777.3248590916      3.30e-04  
    6   -2777.3315256067      2.39e-04  
    7   -2777.3347997255      7.24e-05  
    8   -2777.3350372165      4.11e-05  
    9   -2777.3351366738      1.04e-05  
   10   -2777.3351429687      3.18e-06  
   11   -2777.3351434495      1.09e-06  
   12   -2777.3351435122      3.28e-07  
   13   -2777.3351435188      9.50e-08  
   14   -2777.3351435192      4.67e-08  
   15   -2777.3351435194      1.54e-08  
   16   -2777.3351435191      6.08e-09  Convergence criterion met
 ---------------------------------------
 SCF time:   CPU 2684.78s  wall 215.00s 
 SCF   energy = -2777.33514352
 Total energy = -2777.33514352
 
 --------------------------------------------------------------
 
                    Orbital Energies (a.u.)
 --------------------------------------------------------------
 
 Alpha MOs
 -- Occupied --
-88.9045 -24.6951 -24.6944 -24.6942 -24.6941 -24.6932 -24.6928 -24.6895
-24.6692 -24.6664 -24.6649 -24.6641 -24.6631 -24.6466 -24.6223 -24.6201
-24.5933 -24.5933 -19.1644 -19.1242 -18.9612 -18.9597 -18.9595 -10.4157
-10.4149 -10.3867 -10.3823 -10.3462 -10.3307 -10.3133 -10.2488  -7.9588
 -5.9227  -5.9211  -5.9211  -1.3073  -1.2999  -1.2747  -1.2581  -1.2342
 -1.2160  -1.2146  -1.2130  -1.2126  -1.2119  -1.1934  -1.1848  -1.1836
 -1.1832  -1.1624  -1.1411  -1.1047  -1.0792  -1.0354  -0.9700  -0.8387
 -0.8375  -0.8107  -0.7615  -0.7074  -0.6906  -0.6860  -0.6469  -0.6235
 -0.6067  -0.6026  -0.5944  -0.5885  -0.5795  -0.5741  -0.5694  -0.5628
 -0.5597  -0.5564  -0.5543  -0.5376  -0.5324  -0.5222  -0.5022  -0.4971
 -0.4791  -0.4725  -0.4599  -0.4558  -0.4524  -0.4504  -0.4497  -0.4438
 -0.4421  -0.4298  -0.4285  -0.4236  -0.4223  -0.4199  -0.4182  -0.4118
 -0.4079  -0.4060  -0.4017  -0.3981  -0.3979  -0.3947  -0.3925  -0.3909
 -0.3886  -0.3776  -0.3740  -0.3689  -0.3671  -0.3631  -0.3613  -0.3529
 -0.3471  -0.3412  -0.3311  -0.3260  -0.3111  -0.3102  -0.3087  -0.3046
 -0.3039  -0.2831  -0.2789  -0.1979  -0.1976  -0.1682  -0.1658  -0.1584
 -0.1188
 -- Virtual --
  0.0549   0.0680   0.0755   0.0833   0.0994   0.1004   0.1074   0.1147
  0.1188   0.1228   0.1255   0.1354   0.1406   0.1444   0.1504   0.1509
  0.1553   0.1571   0.1675   0.1695   0.1735   0.1754   0.1797   0.1830
  0.1857   0.1912   0.1920   0.1932   0.1966   0.2027   0.2061   0.2094
  0.2127   0.2129   0.2204   0.2222   0.2248   0.2261   0.2318   0.2339
  0.2389   0.2451   0.2481   0.2514   0.2559   0.2582   0.2598   0.2639
  0.2674   0.2693   0.2733   0.2745   0.2784   0.2831   0.2870   0.2897
  0.2920   0.3009   0.3030   0.3042   0.3148   0.3174   0.3192   0.3236
  0.3276   0.3303   0.3328   0.3354   0.3392   0.3441   0.3466   0.3493
  0.3571   0.3589   0.3635   0.3647   0.3688   0.3698   0.3709   0.3751
  0.3767   0.3784   0.3839   0.3880   0.3904   0.3935   0.3987   0.4033
  0.4038   0.4080   0.4135   0.4136   0.4191   0.4225   0.4246   0.4268
  0.4283   0.4323   0.4367   0.4376   0.4422   0.4455   0.4477   0.4493
  0.4524   0.4561   0.4597   0.4611   0.4655   0.4678   0.4725   0.4738
  0.4771   0.4824   0.4852   0.4890   0.4914   0.4923   0.4984   0.4999
  0.5066   0.5096   0.5157   0.5181   0.5211   0.5240   0.5288   0.5324
  0.5372   0.5399   0.5449   0.5486   0.5517   0.5586   0.5624   0.5688
  0.5718   0.5747   0.5792   0.5845   0.5937   0.5985   0.6052   0.6120
  0.6162   0.6211   0.6312   0.6343   0.6455   0.6514   0.6536   0.6580
  0.6634   0.6698   0.6773   0.6861   0.6924   0.7031   0.7087   0.7123
  0.7184   0.7238   0.7299   0.7373   0.7459   0.7597   0.7666   0.7770
  0.7804   0.8036   0.8051   0.8139   0.8201   0.8239   0.8339   0.8492
  0.8530   0.8566   0.8638   0.8687   0.8719   0.8830   0.9004   0.9120
  0.9239   0.9295   0.9555   0.9696   0.9793   0.9908   1.0052   1.0118
  1.0167   1.0233   1.0451   1.0534   1.0674   1.0826   1.0894   1.0907
  1.1153   1.1274   1.1306   1.1426   1.1524   1.1693   1.1728   1.1823
  1.1896   1.2007   1.2095   1.2217   1.2300   1.2446   1.2497   1.2506
  1.2539   1.2754   1.2773   1.2866   1.2945   1.2983   1.3040   1.3140
  1.3185   1.3213   1.3240   1.3321   1.3396   1.3429   1.3519   1.3609
  1.3629   1.3725   1.3754   1.3815   1.3891   1.3917   1.4079   1.4124
  1.4176   1.4211   1.4324   1.4364   1.4438   1.4491   1.4532   1.4549
  1.4552   1.4648   1.4704   1.4717   1.4745   1.4770   1.4858   1.4869
  1.4939   1.4966   1.4988   1.5047   1.5115   1.5178   1.5190   1.5233
  1.5244   1.5279   1.5328   1.5446   1.5462   1.5476   1.5546   1.5610
  1.5625   1.5665   1.5696   1.5785   1.5804   1.5841   1.5864   1.5911
  1.6033   1.6055   1.6118   1.6224   1.6233   1.6293   1.6366   1.6420
  1.6440   1.6584   1.6674   1.6696   1.6739   1.6833   1.6876   1.6915
  1.7018   1.7088   1.7157   1.7161   1.7302   1.7376   1.7513   1.7591
  1.7641   1.7764   1.7829   1.8088   1.8161   1.8317   1.8623   1.8660
  1.8792   1.8885   1.9000   1.9161   1.9241   1.9326   1.9449   1.9522
  1.9629   1.9770   1.9866   1.9977   2.0003   2.0047   2.0118   2.0227
  2.0327   2.0394   2.0447   2.0550   2.0613   2.0691   2.0752   2.0796
  2.0825   2.0996   2.1027   2.1098   2.1181   2.1290   2.1336   2.1399
  2.1468   2.1506   2.1562   2.1631   2.1681   2.1712   2.1742   2.1785
  2.1831   2.1915   2.1951   2.1988   2.2118   2.2257   2.2277   2.2349
  2.2388   2.2524   2.2551   2.2666   2.2771   2.2825   2.2950   2.3040
  2.3045   2.3149   2.3368   2.3443   2.3503   2.3607   2.3717   2.3819
  2.3886   2.3915   2.4042   2.4111   2.4238   2.4255   2.4271   2.4429
  2.4561   2.4623   2.4711   2.4786   2.4813   2.5175   2.5203   2.5233
  2.5347   2.5413   2.5605   2.5702   2.5788   2.5970   2.6109   2.6218
  2.6487   2.6541   2.6679   2.6729   2.6789   2.6882   2.6920   2.7014
  2.7071   2.7103   2.7162   2.7302   2.7495   2.7595   2.7712   2.7845
  2.7870   2.7984   2.8159   2.8294   2.8389   2.8446   2.8618   2.8699
  2.8832   2.8980   2.9332   2.9452   2.9822   3.0097   3.0199   3.0468
  3.0789   3.0868   3.1087   3.1166   3.1593   3.1685   3.1826   3.2017
  3.2196   3.2394   3.2556   3.3508   3.3670   3.3884   3.4214   3.4381
  3.4431   3.4615   3.4852   3.4884   3.4958   3.5072   3.5205   3.5279
  3.5340   3.5484   3.5568   3.5677   3.5789   3.5901   3.6061   3.6181
  3.6386   3.6424   3.6476   3.6620   3.6674   3.6731   3.6786   3.6942
  3.7116   3.7364   3.7424   3.7551   3.7723   3.7834   3.7890   3.8047
  3.8358   3.8755   3.8829   3.9141   3.9571   3.9851   4.0316   4.1134
  4.2111   4.2193   4.2651   4.2693   4.2811   4.2992   4.3056   4.3153
  4.3311   4.3482   4.3553   4.3643   4.3819   4.3974   4.4470   4.4827
  4.4994   5.1880   5.1959   5.1976   5.2133   5.2405   5.2632   5.2881
  5.2995   5.3144   5.4788   5.4877   5.5234   5.5334   5.8643   5.9168
  6.3407   6.3698   6.3904   6.4046   6.4093   6.4220   6.4289   6.4334
  6.4437   6.4479   6.4518   6.4558   6.4703   6.4761   6.4807   6.4862
  6.4885   6.4929   6.5005   6.5067   6.5115   6.5213   6.5239   6.5277
  6.5371   6.5462   6.5534   6.5643   6.5710   6.5774   6.5841   6.5962
  6.6292   6.6325   6.6518   6.6563   6.6805   6.6951   6.7140   6.7335
  6.7419   6.7637   6.7704   6.8046   6.8193   6.8371   6.8538   6.8572
  6.8674   6.8739   6.8895   6.9092   6.9210   6.9353   6.9643   6.9853
  6.9941   7.0385   7.0907   7.1038   7.1096   7.1137   7.1215   7.1657
  7.2141   7.2214   7.2412   7.3347   7.3392   7.3927   7.4159   7.5249
  7.5325   7.5484   7.6051   7.6623   8.5320   9.0412   9.0462   9.0534
  9.0567   9.0758   9.0803   9.0952   9.0972   9.0992   9.1143   9.1294
  9.1332   9.1475   9.1526   9.1545   9.1575   9.1675   9.1746   9.1790
  9.1805   9.1830   9.1878   9.1931   9.1981   9.2080   9.2159   9.2189
  9.2265   9.2336   9.2390   9.2435   9.2527   9.2621   9.2661   9.2728
  9.2774   9.2817   9.2894   9.2899   9.2970   9.2999   9.3115   9.3208
  9.3256   9.3328   9.3421   9.3983   9.4107   9.4422   9.4463   9.4485
  9.4609   9.4665   9.4791   9.4839   9.4912   9.5158   9.5597   9.6179
  9.6278   9.6417   9.6503   9.6548   9.6577   9.6855   9.6932   9.7099
  9.7133   9.7238   9.7329   9.7339   9.7451   9.7817   9.7829   9.7914
  9.8169   9.8427   9.8546   9.8578   9.8618   9.8671   9.8762   9.9040
  9.9077   9.9239  17.7074  17.7138  17.7743  23.8517  23.8936  23.9375
 23.9434  23.9584  23.9947  24.0219  24.0885  50.0640  50.0766  50.0853
 50.1275  50.1637  66.8555  66.8659  66.8669  66.8895  66.9091  66.9181
 66.9196  66.9273  66.9327  66.9417  66.9581  66.9671  66.9682  66.9837
 66.9905  67.0016  67.0393 189.6703
 --------------------------------------------------------------
 
          Ground-State Mulliken Net Atomic Charges

     Atom                 Charge (a.u.)
  ----------------------------------------
      1 C                     1.372329
      2 F                    -0.289101
      3 F                    -0.285440
      4 C                    -0.470835
      5 O                    -0.199801
      6 C                     0.706458
      7 C                    -0.035089
      8 F                    -0.270090
      9 F                    -0.319395
     10 C                     1.240107
     11 F                    -0.280626
     12 F                    -0.302337
     13 F                    -0.290059
     14 F                    -0.307231
     15 F                    -0.307618
     16 F                    -0.324750
     17 O                    -0.387498
     18 C                     0.639620
     19 C                     1.340515
     20 C                     0.475923
     21 F                    -0.265132
     22 F                    -0.276882
     23 S                     1.251325
     24 F                    -0.301593
     25 F                    -0.303833
     26 F                    -0.289940
     27 F                    -0.269227
     28 F                    -0.356853
     29 O                    -0.596417
     30 O                    -0.635749
     31 O                    -0.660781
  ----------------------------------------
  Sum of atomic charges =    -1.000000

 -----------------------------------------------------------------
                    Cartesian Multipole Moments
 -----------------------------------------------------------------
    Charge (ESU x 10^10)
                -4.8032
    Dipole Moment (Debye)
         X      22.3064      Y      -1.8217      Z       0.2653
       Tot      22.3823
    Quadrupole Moments (Debye-Ang)
        XX    -315.8629     XY      10.8997     YY    -187.4126
        XZ      -2.1465     YZ       0.5734     ZZ    -186.4947
    Octopole Moments (Debye-Ang^2)
       XXX     820.5759    XXY     -71.3087    XYY      73.4669
       YYY     -20.4149    XXZ      19.0844    XYZ       0.2540
       YYZ       4.8018    XZZ      67.4583    YZZ      -2.6005
       ZZZ      -2.8578
    Hexadecapole Moments (Debye-Ang^3)
      XXXX  -18326.4392   XXXY     425.1999   XXYY   -2882.3321
      XYYY      98.6922   YYYY   -1905.9679   XXXZ    -108.8761
      XXYZ      10.3626   XYYZ     -28.8681   YYYZ       7.4210
      XXZZ   -2695.5929   XYZZ      17.9636   YYZZ    -490.8924
      XZZZ       7.0307   YZZZ       1.7069   ZZZZ   -1056.1696
 -----------------------------------------------------------------
 Calculating analytic gradient of the SCF energy
 Gradient of SCF Energy
            1           2           3           4           5           6
    1  -0.0024556  -0.0028269   0.0002390   0.0052699   0.0000299  -0.0031236
    2  -0.0020370   0.0032345  -0.0031185  -0.0018781  -0.0009917  -0.0012331
    3  -0.0025198  -0.0005435   0.0025298   0.0041136   0.0031553   0.0028584
            7           8           9          10          11          12
    1   0.0043568  -0.0002494   0.0034412  -0.0034995   0.0001863  -0.0009332
    2  -0.0032487   0.0000965  -0.0007451   0.0031321  -0.0001040   0.0017270
    3  -0.0019053   0.0020436  -0.0023222   0.0004768   0.0040460  -0.0032262
           13          14          15          16          17          18
    1  -0.0035857   0.0030217   0.0016811   0.0001614  -0.0013494  -0.0019243
    2  -0.0022574   0.0025191  -0.0031807   0.0035226   0.0015539   0.0056645
    3  -0.0026683  -0.0008817  -0.0028469  -0.0001529  -0.0026198  -0.0029083
           19          20          21          22          23          24
    1   0.0001441  -0.0034451  -0.0001037   0.0009895   0.0144082   0.0006347
    2   0.0052920  -0.0032881  -0.0045990  -0.0003596   0.0036112   0.0013232
    3   0.0002740   0.0022446  -0.0016927   0.0040926  -0.0024506   0.0018239
           25          26          27          28          29          30
    1   0.0007342  -0.0038597  -0.0012380   0.0038780  -0.0080877  -0.0023405
    2  -0.0009857  -0.0007050  -0.0001465   0.0000123   0.0167343  -0.0157071
    3  -0.0020362   0.0033189  -0.0042587   0.0001096  -0.0055989  -0.0116946
           31
    1  -0.0001538
    2  -0.0038378
    3   0.0192396
 Max gradient component =       1.924E-02
 RMS gradient           =       4.539E-03
 Gradient time:  CPU 635.14 s  wall 88.45 s

 *****************************************************
             Starting BFGS Algorithm
 *****************************************************
            LIBOPT3 RUN PARAMETERS

  Geometry Optimization Coordinates :
	Delocalized Natural Internal Coordinates

  Step Length Selection Method :
	Eigenvector Following Algorithm

  Step Length Limiter :
	Root-Mean-Square of Gradient

  Convergence Criteria :
	Max Gradient Component    	3.00000000e-04
	Max Displacement Component	1.20000000e-03
	Absolute Energy Difference	1.00000000e-06

  Initial Hessian :
	Approximate Hessian - Model Internal Coordinate

  Type of Verification :
	Verify with final updated Hessian
 *****************************************************

	OPTIMIZATION CYCLE:	1

 Scaling Magnitude of Eigenvalues
 	Minimum: -25.00000000	 Maximum: 25.00000000
 87 Hessian Eigenvalues to form next step
   0.00200000   0.00200000   0.00200000   0.00211425   0.00223721
   0.00317285   0.01272165   0.01648945   0.01711013   0.01942148
   0.04876930   0.05306750   0.05317953   0.06832530   0.06865155
   0.06919403   0.08020792   0.08081828   0.08203465   0.08393167
   0.08503962   0.08530526   0.08574908   0.08582890   0.08641446
   0.08778195   0.10035629   0.10087761   0.10835752   0.10943995
   0.13710245   0.17003456   0.17092693   0.18126670   0.18560913
   0.19557377   0.20240245   0.20979246   0.21063918   0.21223129
   0.21448870   0.25000000   0.25000000   0.25000000   0.25000000
   0.25000000   0.25000000   0.25000000   0.25000000   0.25000000
   0.25000000   0.25000000   0.25000000   0.25000000   0.25000000
   0.25000000   0.25000000   0.25000000   0.26368973   0.26555313
   0.27363668   0.27441738   0.28045652   0.42145292   0.46694556
   0.47505926   0.50498104   0.50698198   0.52395599   0.52537408
   0.52553115   0.54633032   0.54958166   0.55923795   0.56370733
   0.56454930   0.56475138   0.56820149   0.57227407   0.57664219
   0.57801009   0.58037149   0.58048382   0.58158656   0.83629422
   0.84094088   0.84471702

 Minimum Search taking a RFO step
 Searching for Lambda that minimizes along all modes
	Value of Lambda   -0.00425533
	Norm  of Stepsize  0.23144779
	RMS   of Stepsize  0.02481381

	Performing Iterative Coordinate Back-Transformation

	  Starting from Previous Position

	  iter:	0	rms: 1.5378355556e-01	maxdev: 4.3630786056e-01
	  iter:	1	rms: 8.5348849571e-03	maxdev: 2.3793728192e-02
	  iter:	2	rms: 2.4426338208e-05	maxdev: 9.2154903935e-05
	  iter:	3	rms: 1.9391648615e-10	maxdev: 1.0064598472e-09	 Success!

	Finished Iterative Coordinate Back-Transformation
 ----------------------------------------------------------------
             Standard Nuclear Orientation (Angstroms)
    I     Atom           X                Y                Z
 ----------------------------------------------------------------
    1      C       4.0543188563     1.4671356490     0.7579431787
    2      F       3.2661622262     2.5235938597     0.9533709036
    3      F       4.2118371582     0.8361133688     1.9234192207
    4      C       3.4070782788     0.5355318752    -0.3136179432
    5      O       2.1995328434     0.1011620475     0.2311906227
    6      C       0.9909516092     0.2246628389    -0.4415484356
    7      C      -0.1323867469    -0.4577046682     0.4213050056
    8      F       0.0393567042    -0.0094997909     1.7049986035
    9      F       5.2512574376     1.9106550043     0.3492876985
   10      C       4.2819030447    -0.7025318865    -0.6934660643
   11      F       4.5567621968    -1.4449167373     0.3835498744
   12      F       3.2658889184     1.2835862349    -1.4394144128
   13      F       3.6380980875    -1.4631953797    -1.5764051421
   14      F       5.4393385929    -0.3181107586    -1.2484985108
   15      F       1.0326533475    -0.3325289197    -1.6682125885
   16      F       0.6933868487     1.5212974191    -0.6039301978
   17      O      -1.2839642562     0.0083678197    -0.1566814539
   18      C      -2.6036226670    -0.2864258021     0.2834697403
   19      C       0.0177619107    -2.0213916106     0.4840179046
   20      C      -3.5254198012     0.7789976916    -0.3658688863
   21      F      -2.9336055881    -1.5241520003    -0.1142423721
   22      F      -2.6659717308    -0.2420443206     1.6192323702
   23      S      -5.3937814252     0.5394511747    -0.1307894464
   24      F      -3.1432889569     1.9767363957     0.1526270584
   25      F      -3.2320573628     0.8000369723    -1.6936037098
   26      F      -0.7772090041    -2.5341394400     1.4215639562
   27      F      -0.2685418706    -2.5896842823    -0.6879736086
   28      F       1.2787449468    -2.3652628043     0.8089514300
   29      O      -5.9156480730     1.7939341515    -0.6809115110
   30      O      -5.6702649658    -0.6632997389    -0.9231760922
   31      O      -5.5154422409     0.3819704842     1.3235035403
 ----------------------------------------------------------------
 Molecular Point Group                 C1    NOp =  1
 Largest Abelian Subgroup              C1    NOp =  1
 Nuclear Repulsion Energy =        4348.61328940 hartrees
 There are      129 alpha and      129 beta electrons
 Applying Cartesian multipole field
    Component          Value
    ---------          -----
     (2,0,0)        1.00000E-12
     (0,2,0)        2.00000E-11
     (0,0,2)       -3.00000E-11
 Nucleus-field energy     = 1.7439197020e-08 hartrees
 Requested basis set is 6-311++G(2d,2p)
 There are 224 shells and 845 basis functions
 A cutoff of  1.0D-12 yielded  14710 shell pairs
 There are    222182 function pairs (    251342 Cartesian)
 Smallest overlap matrix eigenvalue = 4.28E-06
 Guess MOs from SCF MO coefficient file

 -----------------------------------------------------------------------
  General SCF calculation program by
  Eric Jon Sundstrom, Paul Horn, Yuezhi Mao, Dmitri Zuev, Alec White,
  David Stuck, Shaama M.S., Shane Yost, Joonho Lee, David Small,
  Daniel Levine, Susi Lehtola, Hugh Burton, Evgeny Epifanovsky,
  Bang C. Huynh
 -----------------------------------------------------------------------
 Exchange:     0.2000 Hartree-Fock + 0.0800 Slater + 0.7200 B88
 Correlation:  0.1900 VWN1RPA + 0.8100 LYP
 Using SG-1 standard quadrature grid
 A restricted SCF calculation will be
 performed using DIIS
 SCF converges when DIIS error is below 1.0e-08
 ---------------------------------------
  Cycle       Energy         DIIS error
 ---------------------------------------
    1   -2777.2664973990      7.70e-04  
    2   -2777.3360785901      1.08e-04  
    3   -2777.3359377667      1.38e-04  
    4   -2777.3369463828      2.55e-05  
    5   -2777.3369681269      1.55e-05  
    6   -2777.3369825369      3.98e-06  
    7   -2777.3369834405      9.77e-07  
    8   -2777.3369834935      2.92e-07  
    9   -2777.3369834982      8.36e-08  
   10   -2777.3369834985      2.69e-08  
   11   -2777.3369834986      1.17e-08  
   12   -2777.3369834982      4.06e-09  Convergence criterion met
 ---------------------------------------
 SCF time:   CPU 1859.07s  wall 155.00s 
 SCF   energy = -2777.33698350
 Total energy = -2777.33698350
 
 --------------------------------------------------------------
 
                    Orbital Energies (a.u.)
 --------------------------------------------------------------
 
 Alpha MOs
 -- Occupied --
-88.9010 -24.6945 -24.6945 -24.6942 -24.6933 -24.6931 -24.6910 -24.6904
-24.6691 -24.6668 -24.6663 -24.6648 -24.6628 -24.6479 -24.6238 -24.6217
-24.5916 -24.5915 -19.1644 -19.1232 -18.9587 -18.9579 -18.9576 -10.4153
-10.4141 -10.3877 -10.3815 -10.3481 -10.3309 -10.3149 -10.2464  -7.9558
 -5.9197  -5.9181  -5.9181  -1.3092  -1.3024  -1.2785  -1.2590  -1.2362
 -1.2162  -1.2151  -1.2145  -1.2129  -1.2124  -1.1953  -1.1860  -1.1854
 -1.1837  -1.1622  -1.1432  -1.1033  -1.0784  -1.0348  -0.9757  -0.8420
 -0.8413  -0.8086  -0.7603  -0.7065  -0.6897  -0.6857  -0.6469  -0.6237
 -0.6072  -0.6029  -0.5944  -0.5883  -0.5803  -0.5743  -0.5700  -0.5636
 -0.5608  -0.5575  -0.5559  -0.5386  -0.5336  -0.5231  -0.5036  -0.4967
 -0.4774  -0.4726  -0.4599  -0.4563  -0.4513  -0.4509  -0.4502  -0.4446
 -0.4419  -0.4309  -0.4290  -0.4231  -0.4221  -0.4202  -0.4190  -0.4132
 -0.4080  -0.4061  -0.4011  -0.3971  -0.3967  -0.3941  -0.3923  -0.3909
 -0.3884  -0.3772  -0.3738  -0.3703  -0.3675  -0.3643  -0.3632  -0.3538
 -0.3476  -0.3404  -0.3307  -0.3262  -0.3106  -0.3103  -0.3080  -0.3045
 -0.3035  -0.2824  -0.2785  -0.1997  -0.1994  -0.1687  -0.1668  -0.1580
 -0.1181
 -- Virtual --
  0.0557   0.0681   0.0758   0.0833   0.0987   0.1003   0.1078   0.1150
  0.1189   0.1230   0.1256   0.1337   0.1401   0.1453   0.1508   0.1518
  0.1545   0.1571   0.1663   0.1688   0.1743   0.1759   0.1800   0.1829
  0.1855   0.1913   0.1929   0.1940   0.1978   0.2034   0.2054   0.2095
  0.2125   0.2136   0.2208   0.2237   0.2266   0.2294   0.2340   0.2351
  0.2404   0.2447   0.2489   0.2528   0.2588   0.2600   0.2620   0.2632
  0.2680   0.2695   0.2716   0.2748   0.2782   0.2812   0.2861   0.2905
  0.2911   0.2973   0.3015   0.3041   0.3141   0.3169   0.3187   0.3220
  0.3267   0.3311   0.3327   0.3355   0.3385   0.3427   0.3455   0.3465
  0.3545   0.3593   0.3627   0.3663   0.3682   0.3706   0.3712   0.3743
  0.3774   0.3786   0.3833   0.3877   0.3895   0.3940   0.3968   0.4002
  0.4054   0.4061   0.4139   0.4152   0.4197   0.4215   0.4244   0.4257
  0.4279   0.4307   0.4339   0.4379   0.4423   0.4439   0.4471   0.4487
  0.4518   0.4557   0.4585   0.4612   0.4626   0.4679   0.4714   0.4731
  0.4748   0.4802   0.4816   0.4861   0.4897   0.4922   0.4975   0.4982
  0.5059   0.5073   0.5134   0.5183   0.5203   0.5226   0.5273   0.5296
  0.5380   0.5404   0.5466   0.5485   0.5507   0.5588   0.5637   0.5654
  0.5689   0.5730   0.5784   0.5851   0.5948   0.6027   0.6034   0.6081
  0.6142   0.6224   0.6318   0.6340   0.6407   0.6475   0.6538   0.6594
  0.6619   0.6664   0.6767   0.6869   0.6928   0.6991   0.7070   0.7089
  0.7153   0.7203   0.7272   0.7373   0.7404   0.7605   0.7633   0.7766
  0.7778   0.7968   0.7996   0.8116   0.8199   0.8247   0.8336   0.8531
  0.8547   0.8594   0.8663   0.8711   0.8748   0.8836   0.9062   0.9085
  0.9212   0.9278   0.9607   0.9718   0.9828   0.9917   1.0093   1.0132
  1.0193   1.0242   1.0440   1.0513   1.0594   1.0824   1.0849   1.0879
  1.1186   1.1255   1.1270   1.1370   1.1498   1.1668   1.1684   1.1772
  1.1888   1.1997   1.2076   1.2188   1.2300   1.2426   1.2448   1.2459
  1.2586   1.2779   1.2795   1.2856   1.2926   1.2947   1.3007   1.3122
  1.3169   1.3213   1.3231   1.3319   1.3385   1.3424   1.3526   1.3577
  1.3603   1.3712   1.3773   1.3813   1.3836   1.3915   1.4060   1.4120
  1.4178   1.4246   1.4340   1.4424   1.4435   1.4459   1.4479   1.4551
  1.4570   1.4664   1.4670   1.4699   1.4705   1.4749   1.4786   1.4827
  1.4866   1.4911   1.4985   1.5009   1.5070   1.5142   1.5165   1.5181
  1.5230   1.5293   1.5321   1.5341   1.5405   1.5429   1.5481   1.5534
  1.5565   1.5616   1.5680   1.5744   1.5752   1.5837   1.5898   1.5964
  1.6002   1.6009   1.6074   1.6157   1.6217   1.6238   1.6333   1.6439
  1.6456   1.6542   1.6596   1.6656   1.6733   1.6765   1.6889   1.6924
  1.7001   1.7069   1.7203   1.7237   1.7259   1.7331   1.7470   1.7521
  1.7575   1.7742   1.7826   1.8043   1.8156   1.8371   1.8551   1.8648
  1.8777   1.8904   1.9012   1.9146   1.9270   1.9356   1.9462   1.9563
  1.9622   1.9826   1.9884   1.9940   1.9999   2.0049   2.0093   2.0267
  2.0399   2.0419   2.0471   2.0560   2.0624   2.0703   2.0758   2.0822
  2.0860   2.0958   2.1027   2.1045   2.1187   2.1248   2.1355   2.1406
  2.1429   2.1500   2.1609   2.1658   2.1694   2.1753   2.1768   2.1795
  2.1810   2.1920   2.1973   2.2048   2.2084   2.2207   2.2272   2.2335
  2.2396   2.2435   2.2502   2.2589   2.2709   2.2803   2.2812   2.2947
  2.3036   2.3117   2.3363   2.3392   2.3435   2.3583   2.3674   2.3740
  2.3837   2.3903   2.3947   2.4046   2.4136   2.4249   2.4278   2.4336
  2.4482   2.4553   2.4608   2.4674   2.4820   2.5023   2.5181   2.5214
  2.5310   2.5362   2.5577   2.5664   2.5810   2.5973   2.6115   2.6192
  2.6441   2.6597   2.6695   2.6789   2.6837   2.6880   2.6928   2.7004
  2.7106   2.7151   2.7194   2.7288   2.7498   2.7584   2.7714   2.7788
  2.7870   2.7968   2.8114   2.8267   2.8415   2.8481   2.8603   2.8688
  2.8849   2.8917   2.9364   2.9407   2.9839   3.0124   3.0202   3.0400
  3.0822   3.0868   3.1087   3.1163   3.1585   3.1656   3.1822   3.2010
  3.2187   3.2391   3.2552   3.3511   3.3604   3.3936   3.4130   3.4324
  3.4405   3.4553   3.4781   3.4882   3.4924   3.5015   3.5172   3.5270
  3.5306   3.5563   3.5605   3.5665   3.5755   3.5892   3.6122   3.6173
  3.6345   3.6440   3.6522   3.6631   3.6670   3.6755   3.6786   3.6898
  3.7026   3.7344   3.7437   3.7587   3.7729   3.7812   3.7931   3.8034
  3.8382   3.8677   3.8776   3.9095   3.9356   3.9803   4.0291   4.1109
  4.2095   4.2231   4.2668   4.2686   4.2809   4.2935   4.2998   4.3117
  4.3226   4.3384   4.3502   4.3606   4.3768   4.3953   4.4313   4.4777
  4.4905   5.1910   5.1979   5.2060   5.2121   5.2402   5.2658   5.2887
  5.2975   5.3110   5.4710   5.4851   5.5319   5.5451   5.8678   5.9262
  6.3485   6.3710   6.4005   6.4063   6.4108   6.4216   6.4280   6.4295
  6.4440   6.4463   6.4483   6.4573   6.4586   6.4725   6.4778   6.4806
  6.4827   6.4892   6.4929   6.5012   6.5054   6.5135   6.5233   6.5247
  6.5308   6.5386   6.5454   6.5545   6.5589   6.5671   6.5891   6.5922
  6.6154   6.6317   6.6460   6.6597   6.6795   6.6985   6.7184   6.7319
  6.7365   6.7690   6.7777   6.8090   6.8232   6.8398   6.8570   6.8603
  6.8707   6.8719   6.8878   6.9086   6.9215   6.9342   6.9744   6.9880
  6.9966   7.0382   7.0797   7.1001   7.1078   7.1173   7.1194   7.1715
  7.2092   7.2224   7.2441   7.3428   7.3473   7.4002   7.4201   7.5322
  7.5386   7.5610   7.6025   7.6592   8.5477   9.0409   9.0478   9.0500
  9.0564   9.0746   9.0771   9.0928   9.0940   9.0991   9.1077   9.1270
  9.1325   9.1456   9.1584   9.1611   9.1622   9.1648   9.1747   9.1796
  9.1815   9.1839   9.1909   9.1946   9.1958   9.2070   9.2162   9.2203
  9.2242   9.2334   9.2355   9.2420   9.2468   9.2615   9.2629   9.2734
  9.2741   9.2797   9.2884   9.2921   9.2953   9.3013   9.3127   9.3196
  9.3254   9.3288   9.3389   9.3957   9.4122   9.4400   9.4454   9.4516
  9.4628   9.4696   9.4807   9.4833   9.4929   9.5164   9.5559   9.6181
  9.6264   9.6418   9.6493   9.6540   9.6564   9.6870   9.6939   9.7099
  9.7143   9.7239   9.7321   9.7341   9.7403   9.7809   9.7842   9.7913
  9.8150   9.8433   9.8555   9.8570   9.8622   9.8701   9.8769   9.9003
  9.9052   9.9195  17.7194  17.7253  17.7745  23.8520  23.8949  23.9427
 23.9503  23.9670  23.9997  24.0219  24.0891  50.0670  50.0774  50.0809
 50.1242  50.1674  66.8564  66.8646  66.8656  66.8913  66.9065  66.9155
 66.9205  66.9257  66.9293  66.9358  66.9550  66.9660  66.9694  66.9838
 66.9890  66.9972  67.0345 189.6946
 --------------------------------------------------------------
 
          Ground-State Mulliken Net Atomic Charges

     Atom                 Charge (a.u.)
  ----------------------------------------
      1 C                     1.355145
      2 F                    -0.289680
      3 F                    -0.288294
      4 C                    -0.431759
      5 O                    -0.198953
      6 C                     0.602056
      7 C                     0.022052
      8 F                    -0.270931
      9 F                    -0.319931
     10 C                     1.235274
     11 F                    -0.283494
     12 F                    -0.300268
     13 F                    -0.285589
     14 F                    -0.310078
     15 F                    -0.305139
     16 F                    -0.323529
     17 O                    -0.402387
     18 C                     0.653735
     19 C                     1.352504
     20 C                     0.475564
     21 F                    -0.263951
     22 F                    -0.277726
     23 S                     1.284932
     24 F                    -0.304821
     25 F                    -0.306057
     26 F                    -0.289258
     27 F                    -0.267684
     28 F                    -0.345292
     29 O                    -0.606837
     30 O                    -0.643566
     31 O                    -0.666039
  ----------------------------------------
  Sum of atomic charges =    -1.000000

 -----------------------------------------------------------------
                    Cartesian Multipole Moments
 -----------------------------------------------------------------
    Charge (ESU x 10^10)
                -4.8032
    Dipole Moment (Debye)
         X      22.2178      Y      -2.3584      Z       0.4931
       Tot      22.3481
    Quadrupole Moments (Debye-Ang)
        XX    -315.0949     XY      13.3910     YY    -188.0505
        XZ      -3.7062     YZ       0.8106     ZZ    -186.4882
    Octopole Moments (Debye-Ang^2)
       XXX     812.5093    XXY     -84.5688    XYY      74.5539
       YYY     -24.4592    XXZ      26.2238    XYZ      -1.2360
       YYZ       5.7506    XZZ      67.0313    YZZ      -5.0796
       ZZZ      -0.4577
    Hexadecapole Moments (Debye-Ang^3)
      XXXX  -18209.6281   XXXY     516.1832   XXYY   -2895.3820
      XYYY     152.7653   YYYY   -1963.8231   XXXZ    -145.1317
      XXYZ      21.5661   XYYZ     -34.6475   YYYZ      24.6179
      XXZZ   -2697.8671   XYZZ      42.7634   YYZZ    -509.8466
      XZZZ       5.5103   YZZZ      15.5054   ZZZZ   -1108.9803
 -----------------------------------------------------------------
 Calculating analytic gradient of the SCF energy
 Gradient of SCF Energy
            1           2           3           4           5           6
    1  -0.0013564   0.0008655  -0.0002339   0.0025220  -0.0010739  -0.0015695
    2  -0.0023704   0.0001321   0.0013790  -0.0027592   0.0033575  -0.0024842
    3  -0.0028549   0.0010558   0.0006720   0.0001199   0.0029882   0.0019687
            7           8           9          10          11          12
    1   0.0016628   0.0005864   0.0001315  -0.0017619   0.0006669  -0.0000867
    2  -0.0027473   0.0012784   0.0013546   0.0028237  -0.0014326   0.0020781
    3   0.0001071   0.0002046   0.0008209   0.0005011  -0.0005074  -0.0005176
           13          14          15          16          17          18
    1   0.0021347   0.0005182  -0.0013698  -0.0000877  -0.0005549  -0.0004718
    2  -0.0005624  -0.0017774   0.0006567  -0.0003909   0.0035841   0.0009425
    3   0.0003289  -0.0011045  -0.0016015  -0.0007497  -0.0018822  -0.0001335
           19          20          21          22          23          24
    1  -0.0002412  -0.0014959  -0.0014841  -0.0011115   0.0074092   0.0000426
    2   0.0018664  -0.0017240  -0.0005528   0.0006879   0.0014249   0.0002040
    3  -0.0004633   0.0010949  -0.0008758   0.0012891  -0.0011389  -0.0004206
           25          26          27          28          29          30
    1   0.0003546   0.0024352   0.0005696  -0.0005886  -0.0032361  -0.0020835
    2   0.0004756  -0.0015676  -0.0014579  -0.0014934   0.0058266  -0.0059294
    3   0.0000228   0.0000113  -0.0000735   0.0004320  -0.0025038  -0.0039570
           31
    1  -0.0010917
    2  -0.0008226
    3   0.0071669
 Max gradient component =       7.409E-03
 RMS gradient           =       2.028E-03
 Gradient time:  CPU 624.00 s  wall 87.38 s

     Step 1	:
        Energy is -2777.3369834982
                            Maximum         Tolerance       Converged?
         Gradient           6.72286402e-03	3.00000000e-04	false
         Displacement       9.69050114e-02	1.20000000e-03	false
         Energy change      1.83997918e-03	1.00000000e-06	false


	OPTIMIZATION CYCLE:	2

 Scaling Magnitude of Eigenvalues
 	Minimum: -25.00000000	 Maximum: 25.00000000
 87 Hessian Eigenvalues to form next step
   0.00194505   0.00200000   0.00200320   0.00211422   0.00224437
   0.00317062   0.01268850   0.01644195   0.01686756   0.01990799
   0.04876965   0.05307341   0.05327243   0.06828660   0.06905202
   0.06916955   0.08077813   0.08098868   0.08203836   0.08387837
   0.08510338   0.08561924   0.08579209   0.08636397   0.08760939
   0.08778110   0.10048225   0.10789415   0.10943513   0.11025024
   0.13695248   0.16991831   0.17239761   0.18256934   0.18854917
   0.19546623   0.19797126   0.21004698   0.21030759   0.21064183
   0.21381710   0.24421805   0.25000000   0.25000000   0.25000000
   0.25000000   0.25000000   0.25000000   0.25000000   0.25000000
   0.25000000   0.25000000   0.25000000   0.25000000   0.25000000
   0.25000000   0.25000000   0.26110037   0.26424170   0.27110574
   0.27371040   0.27962596   0.35702912   0.42513810   0.46872558
   0.47335901   0.48942198   0.50600816   0.52263368   0.52545311
   0.52666324   0.54326186   0.55041800   0.55506978   0.56279814
   0.56425399   0.56504569   0.56683328   0.57179537   0.57665435
   0.57730336   0.58038640   0.58099051   0.59047694   0.69039995
   0.83825301   0.84316629

 Minimum Search taking a RFO step
 Searching for Lambda that minimizes along all modes
	Value of Lambda   -0.00156817
	Norm  of Stepsize  0.30516800
	RMS   of Stepsize  0.03271744

	Performing Iterative Coordinate Back-Transformation

	  Starting from Previous Position

	  iter:	0	rms: 1.2188618891e-01	maxdev: 3.0815584459e-01
	  iter:	1	rms: 3.8777315795e-03	maxdev: 1.2106808238e-02
	  iter:	2	rms: 2.6940171656e-06	maxdev: 8.9713869522e-06
	  iter:	3	rms: 5.9437852010e-12	maxdev: 3.2039953961e-11	 Success!

	Finished Iterative Coordinate Back-Transformation
 ----------------------------------------------------------------
             Standard Nuclear Orientation (Angstroms)
    I     Atom           X                Y                Z
 ----------------------------------------------------------------
    1      C       4.1170897814     1.3760636536     0.7974509556
    2      F       3.3697842326     2.4466401831     1.0586021696
    3      F       4.2659582959     0.6717152296     1.9201595762
    4      C       3.4216059220     0.5285588244    -0.3169470556
    5      O       2.2118222515     0.0977463109     0.2181671760
    6      C       0.9993944259     0.2992054521    -0.4228371719
    7      C      -0.1349465846    -0.3720410085     0.4418023889
    8      F       0.0106123694     0.0975522196     1.7197294020
    9      F       5.3236747081     1.7930339597     0.3936993664
   10      C       4.2498409887    -0.7145785240    -0.7761877161
   11      F       4.4956507013    -1.5292232256     0.2527375057
   12      F       3.2912127920     1.3338551515    -1.4006795931
   13      F       3.5713453823    -1.3878925069    -1.7020458021
   14      F       5.4181908545    -0.3320731853    -1.3057812975
   15      F       1.0022742445    -0.2164927481    -1.6658297088
   16      F       0.7497660864     1.6108389441    -0.5294656243
   17      O      -1.2846061741     0.0552633478    -0.1576959410
   18      C      -2.5938066222    -0.2721249647     0.2801587682
   19      C       0.0092676362    -1.9321343861     0.5443200962
   20      C      -3.5514877850     0.7418179032    -0.4047223768
   21      F      -2.8698566772    -1.5317185711    -0.0802791489
   22      F      -2.6609227636    -0.1953712630     1.6119221101
   23      S      -5.4155919469     0.4486820335    -0.1513032178
   24      F      -3.2073099641     1.9684640858     0.0690254709
   25      F      -3.2659158421     0.7238141453    -1.7334752842
   26      F      -0.8487746169    -2.4146665726     1.4403078659
   27      F      -0.2142887256    -2.5185713262    -0.6305202222
   28      F       1.2484221709    -2.2670180378     0.9485753350
   29      O      -5.9702322291     1.6527277870    -0.7586787944
   30      O      -5.6465793088    -0.7926466471    -0.8816748558
   31      O      -5.5277652848     0.3589185831     1.3015563558
 ----------------------------------------------------------------
 Molecular Point Group                 C1    NOp =  1
 Largest Abelian Subgroup              C1    NOp =  1
 Nuclear Repulsion Energy =        4355.30813478 hartrees
 There are      129 alpha and      129 beta electrons
 Applying Cartesian multipole field
    Component          Value
    ---------          -----
     (2,0,0)        1.00000E-12
     (0,2,0)        2.00000E-11
     (0,0,2)       -3.00000E-11
 Nucleus-field energy     = 1.4506167635e-08 hartrees
 Requested basis set is 6-311++G(2d,2p)
 There are 224 shells and 845 basis functions
 A cutoff of  1.0D-12 yielded  14721 shell pairs
 There are    222434 function pairs (    251628 Cartesian)
 Smallest overlap matrix eigenvalue = 4.30E-06
 Guess MOs from SCF MO coefficient file

 -----------------------------------------------------------------------
  General SCF calculation program by
  Eric Jon Sundstrom, Paul Horn, Yuezhi Mao, Dmitri Zuev, Alec White,
  David Stuck, Shaama M.S., Shane Yost, Joonho Lee, David Small,
  Daniel Levine, Susi Lehtola, Hugh Burton, Evgeny Epifanovsky,
  Bang C. Huynh
 -----------------------------------------------------------------------
 Exchange:     0.2000 Hartree-Fock + 0.0800 Slater + 0.7200 B88
 Correlation:  0.1900 VWN1RPA + 0.8100 LYP
 Using SG-1 standard quadrature grid
 A restricted SCF calculation will be
 performed using DIIS
 SCF converges when DIIS error is below 1.0e-08
 ---------------------------------------
  Cycle       Energy         DIIS error
 ---------------------------------------
    1   -2777.2989707688      5.73e-04  
    2   -2777.3371169032      7.19e-05  
    3   -2777.3371596719      8.26e-05  
    4   -2777.3374986460      1.90e-05  
    5   -2777.3375136160      9.41e-06  
    6   -2777.3375187767      2.35e-06  
    7   -2777.3375190859      7.18e-07  
    8   -2777.3375191143      2.21e-07  
    9   -2777.3375191169      4.19e-08  
   10   -2777.3375191170      1.65e-08  
   11   -2777.3375191173      4.75e-09  Convergence criterion met
 ---------------------------------------
 SCF time:   CPU 1648.58s  wall 144.00s 
 SCF   energy = -2777.33751912
 Total energy = -2777.33751912
 
 --------------------------------------------------------------
 
                    Orbital Energies (a.u.)
 --------------------------------------------------------------
 
 Alpha MOs
 -- Occupied --
-88.8988 -24.6945 -24.6943 -24.6943 -24.6937 -24.6931 -24.6918 -24.6903
-24.6683 -24.6653 -24.6652 -24.6638 -24.6626 -24.6467 -24.6223 -24.6203
-24.5906 -24.5905 -19.1635 -19.1217 -18.9575 -18.9571 -18.9567 -10.4143
-10.4140 -10.3851 -10.3811 -10.3465 -10.3291 -10.3125 -10.2441  -7.9540
 -5.9178  -5.9163  -5.9163  -1.3097  -1.3028  -1.2773  -1.2595  -1.2368
 -1.2169  -1.2156  -1.2151  -1.2138  -1.2131  -1.1947  -1.1852  -1.1847
 -1.1838  -1.1612  -1.1427  -1.1024  -1.0792  -1.0358  -0.9796  -0.8448
 -0.8442  -0.8079  -0.7585  -0.7061  -0.6894  -0.6841  -0.6464  -0.6228
 -0.6070  -0.6031  -0.5947  -0.5873  -0.5807  -0.5742  -0.5705  -0.5630
 -0.5609  -0.5572  -0.5550  -0.5394  -0.5333  -0.5224  -0.5027  -0.4958
 -0.4757  -0.4728  -0.4602  -0.4567  -0.4512  -0.4507  -0.4501  -0.4446
 -0.4417  -0.4302  -0.4284  -0.4234  -0.4222  -0.4200  -0.4187  -0.4126
 -0.4077  -0.4057  -0.4010  -0.3976  -0.3963  -0.3939  -0.3925  -0.3909
 -0.3883  -0.3769  -0.3736  -0.3693  -0.3667  -0.3633  -0.3607  -0.3525
 -0.3464  -0.3409  -0.3299  -0.3260  -0.3106  -0.3104  -0.3063  -0.3038
 -0.3032  -0.2805  -0.2775  -0.2012  -0.2009  -0.1697  -0.1680  -0.1569
 -0.1182
 -- Virtual --
  0.0572   0.0687   0.0786   0.0833   0.0997   0.1015   0.1087   0.1164
  0.1211   0.1234   0.1259   0.1346   0.1414   0.1462   0.1514   0.1526
  0.1558   0.1575   0.1671   0.1698   0.1757   0.1771   0.1810   0.1851
  0.1858   0.1917   0.1937   0.1953   0.1992   0.2044   0.2055   0.2099
  0.2125   0.2145   0.2216   0.2238   0.2272   0.2300   0.2355   0.2370
  0.2400   0.2454   0.2494   0.2540   0.2593   0.2611   0.2624   0.2663
  0.2694   0.2704   0.2728   0.2759   0.2797   0.2817   0.2894   0.2912
  0.2935   0.2979   0.3042   0.3053   0.3148   0.3184   0.3210   0.3238
  0.3265   0.3320   0.3331   0.3378   0.3415   0.3437   0.3456   0.3480
  0.3547   0.3600   0.3619   0.3681   0.3686   0.3707   0.3740   0.3761
  0.3774   0.3798   0.3843   0.3887   0.3910   0.3981   0.4003   0.4024
  0.4058   0.4085   0.4149   0.4166   0.4206   0.4237   0.4251   0.4268
  0.4287   0.4322   0.4339   0.4381   0.4419   0.4440   0.4473   0.4497
  0.4510   0.4546   0.4587   0.4616   0.4620   0.4686   0.4711   0.4746
  0.4766   0.4814   0.4826   0.4880   0.4904   0.4941   0.4984   0.5016
  0.5064   0.5078   0.5120   0.5160   0.5219   0.5254   0.5271   0.5283
  0.5415   0.5441   0.5476   0.5493   0.5542   0.5588   0.5649   0.5657
  0.5698   0.5740   0.5784   0.5871   0.5950   0.6028   0.6055   0.6142
  0.6160   0.6220   0.6286   0.6332   0.6439   0.6488   0.6542   0.6600
  0.6642   0.6674   0.6767   0.6939   0.6957   0.7042   0.7072   0.7092
  0.7141   0.7204   0.7273   0.7378   0.7423   0.7585   0.7641   0.7762
  0.7840   0.7923   0.8038   0.8132   0.8211   0.8262   0.8359   0.8531
  0.8584   0.8602   0.8663   0.8703   0.8749   0.8849   0.9058   0.9084
  0.9216   0.9251   0.9615   0.9722   0.9843   0.9922   1.0147   1.0162
  1.0214   1.0270   1.0459   1.0541   1.0606   1.0831   1.0855   1.0908
  1.1173   1.1244   1.1291   1.1368   1.1537   1.1621   1.1693   1.1777
  1.1890   1.2041   1.2115   1.2225   1.2302   1.2410   1.2479   1.2552
  1.2613   1.2789   1.2794   1.2859   1.2935   1.2963   1.3034   1.3131
  1.3165   1.3199   1.3245   1.3353   1.3393   1.3436   1.3519   1.3568
  1.3627   1.3705   1.3782   1.3832   1.3849   1.3944   1.4078   1.4146
  1.4181   1.4272   1.4365   1.4434   1.4462   1.4470   1.4495   1.4551
  1.4576   1.4674   1.4690   1.4705   1.4729   1.4778   1.4808   1.4861
  1.4897   1.4909   1.4967   1.5033   1.5097   1.5163   1.5172   1.5189
  1.5266   1.5311   1.5330   1.5360   1.5393   1.5430   1.5514   1.5566
  1.5648   1.5662   1.5681   1.5747   1.5792   1.5856   1.5883   1.5954
  1.5971   1.6017   1.6139   1.6162   1.6235   1.6311   1.6346   1.6473
  1.6484   1.6538   1.6614   1.6659   1.6774   1.6790   1.6889   1.6918
  1.7018   1.7057   1.7171   1.7223   1.7291   1.7339   1.7494   1.7515
  1.7590   1.7753   1.7830   1.7904   1.8149   1.8381   1.8539   1.8630
  1.8797   1.8860   1.9004   1.9196   1.9298   1.9376   1.9481   1.9599
  1.9616   1.9888   1.9913   1.9934   2.0017   2.0059   2.0099   2.0262
  2.0329   2.0411   2.0503   2.0578   2.0640   2.0714   2.0761   2.0798
  2.0833   2.0970   2.1003   2.1069   2.1263   2.1298   2.1346   2.1367
  2.1431   2.1511   2.1632   2.1655   2.1717   2.1733   2.1764   2.1804
  2.1867   2.1970   2.2009   2.2040   2.2090   2.2237   2.2301   2.2315
  2.2371   2.2466   2.2481   2.2583   2.2772   2.2814   2.2896   2.3020
  2.3072   2.3146   2.3355   2.3405   2.3435   2.3542   2.3684   2.3875
  2.3889   2.3935   2.4033   2.4105   2.4180   2.4330   2.4350   2.4437
  2.4511   2.4645   2.4719   2.4828   2.4929   2.5202   2.5243   2.5295
  2.5351   2.5421   2.5702   2.5762   2.5874   2.6019   2.6153   2.6331
  2.6473   2.6611   2.6765   2.6834   2.6856   2.6902   2.6943   2.7027
  2.7163   2.7206   2.7233   2.7361   2.7545   2.7682   2.7738   2.7907
  2.7944   2.8048   2.8164   2.8290   2.8452   2.8610   2.8694   2.8761
  2.8913   2.8965   2.9389   2.9508   2.9886   3.0165   3.0299   3.0464
  3.0912   3.0984   3.1136   3.1236   3.1642   3.1713   3.1876   3.2074
  3.2229   3.2408   3.2697   3.3585   3.3625   3.3953   3.4135   3.4323
  3.4429   3.4558   3.4788   3.4898   3.4962   3.5006   3.5148   3.5264
  3.5295   3.5531   3.5614   3.5697   3.5770   3.5858   3.6114   3.6152
  3.6432   3.6481   3.6538   3.6640   3.6727   3.6747   3.6839   3.6901
  3.7046   3.7316   3.7410   3.7555   3.7739   3.7808   3.7899   3.8083
  3.8388   3.8697   3.8888   3.9109   3.9474   3.9719   4.0315   4.1095
  4.2103   4.2250   4.2717   4.2730   4.2829   4.2959   4.3023   4.3199
  4.3259   4.3411   4.3458   4.3616   4.3772   4.3993   4.4292   4.4766
  4.4935   5.1928   5.1999   5.2109   5.2136   5.2398   5.2670   5.2857
  5.2978   5.3077   5.4759   5.4985   5.5418   5.5571   5.8753   5.9386
  6.3461   6.3736   6.4053   6.4065   6.4190   6.4216   6.4268   6.4298
  6.4422   6.4455   6.4499   6.4595   6.4661   6.4718   6.4774   6.4820
  6.4875   6.4908   6.5008   6.5031   6.5060   6.5207   6.5234   6.5275
  6.5354   6.5415   6.5491   6.5518   6.5671   6.5745   6.5870   6.5935
  6.6205   6.6340   6.6563   6.6648   6.6789   6.7027   6.7157   6.7241
  6.7414   6.7766   6.7820   6.8118   6.8256   6.8429   6.8607   6.8640
  6.8725   6.8825   6.8868   6.9089   6.9221   6.9364   6.9793   6.9908
  6.9983   7.0406   7.0856   7.1033   7.1119   7.1214   7.1264   7.1745
  7.2167   7.2211   7.2461   7.3480   7.3529   7.4053   7.4187   7.5348
  7.5409   7.5668   7.6055   7.6616   8.5577   9.0412   9.0473   9.0501
  9.0564   9.0733   9.0812   9.0922   9.0955   9.1035   9.1113   9.1294
  9.1332   9.1455   9.1590   9.1597   9.1609   9.1645   9.1753   9.1793
  9.1819   9.1843   9.1916   9.1956   9.1963   9.2078   9.2175   9.2213
  9.2259   9.2355   9.2373   9.2424   9.2489   9.2614   9.2728   9.2755
  9.2787   9.2809   9.2901   9.2944   9.2962   9.3033   9.3161   9.3229
  9.3270   9.3334   9.3461   9.3974   9.4124   9.4433   9.4469   9.4507
  9.4638   9.4711   9.4822   9.4855   9.4976   9.5199   9.5649   9.6228
  9.6275   9.6450   9.6529   9.6562   9.6604   9.6923   9.6974   9.7113
  9.7189   9.7281   9.7336   9.7352   9.7414   9.7815   9.7868   9.7929
  9.8182   9.8425   9.8558   9.8606   9.8625   9.8720   9.8783   9.9050
  9.9097   9.9241  17.7283  17.7341  17.7745  23.8569  23.9029  23.9459
 23.9544  23.9723  24.0040  24.0319  24.1023  50.0686  50.0788  50.0824
 50.1285  50.1707  66.8562  66.8644  66.8658  66.8914  66.9082  66.9152
 66.9227  66.9305  66.9333  66.9387  66.9585  66.9684  66.9715  66.9885
 66.9923  66.9987  67.0384 189.7103
 --------------------------------------------------------------
 
          Ground-State Mulliken Net Atomic Charges

     Atom                 Charge (a.u.)
  ----------------------------------------
      1 C                     1.367832
      2 F                    -0.287820
      3 F                    -0.284485
      4 C                    -0.476270
      5 O                    -0.214028
      6 C                     0.636250
      7 C                     0.070576
      8 F                    -0.278918
      9 F                    -0.319049
     10 C                     1.254201
     11 F                    -0.284637
     12 F                    -0.302969
     13 F                    -0.283376
     14 F                    -0.311311
     15 F                    -0.302627
     16 F                    -0.325122
     17 O                    -0.396299
     18 C                     0.624188
     19 C                     1.328198
     20 C                     0.475035
     21 F                    -0.267092
     22 F                    -0.283124
     23 S                     1.305180
     24 F                    -0.307206
     25 F                    -0.308002
     26 F                    -0.290786
     27 F                    -0.275545
     28 F                    -0.333216
     29 O                    -0.613434
     30 O                    -0.648163
     31 O                    -0.667980
  ----------------------------------------
  Sum of atomic charges =    -1.000000

 -----------------------------------------------------------------
                    Cartesian Multipole Moments
 -----------------------------------------------------------------
    Charge (ESU x 10^10)
                -4.8032
    Dipole Moment (Debye)
         X      22.2549      Y      -1.9965      Z       0.5737
       Tot      22.3517
    Quadrupole Moments (Debye-Ang)
        XX    -314.9860     XY      11.3718     YY    -187.3276
        XZ      -4.2993     YZ       0.8441     ZZ    -186.3928
    Octopole Moments (Debye-Ang^2)
       XXX     814.9665    XXY     -73.1552    XYY      72.4725
       YYY     -19.5212    XXZ      29.8222    XYZ      -1.0947
       YYZ       6.0460    XZZ      67.1311    YZZ      -4.3321
       ZZZ       0.7450
    Hexadecapole Moments (Debye-Ang^3)
      XXXX  -18308.3642   XXXY     429.6276   XXYY   -2874.5725
      XYYY     102.0727   YYYY   -1845.5611   XXXZ    -176.8917
      XXYZ      24.7245   XYYZ     -40.6892   YYYZ      25.5554
      XXZZ   -2715.8759   XYZZ      32.1338   YYZZ    -497.3517
      XZZZ      -7.1934   YZZZ      18.5012   ZZZZ   -1144.1536
 -----------------------------------------------------------------
 Calculating analytic gradient of the SCF energy
 Gradient of SCF Energy
            1           2           3           4           5           6
    1   0.0000593   0.0007086  -0.0000871   0.0000669  -0.0003718   0.0003559
    2   0.0002399  -0.0005982   0.0006715  -0.0010714   0.0015702   0.0004550
    3   0.0004499   0.0001488  -0.0002570  -0.0011623   0.0008973  -0.0008030
            7           8           9          10          11          12
    1  -0.0000899  -0.0010682  -0.0005908   0.0004526  -0.0001571   0.0001265
    2   0.0012352  -0.0008207   0.0000049  -0.0002918  -0.0000443   0.0001805
    3   0.0010692   0.0000002   0.0004393  -0.0009454  -0.0005505   0.0003089
           13          14          15          16          17          18
    1   0.0006526  -0.0005195  -0.0001430   0.0012614  -0.0010887   0.0001877
    2   0.0006078  -0.0003750   0.0004596  -0.0011623  -0.0012683  -0.0008480
    3   0.0008483   0.0001122  -0.0004005  -0.0003374   0.0007213   0.0009888
           19          20          21          22          23          24
    1  -0.0007217   0.0004564   0.0012920   0.0006686  -0.0008615  -0.0003958
    2  -0.0014374   0.0005899   0.0003778  -0.0006166  -0.0001070  -0.0002648
    3  -0.0010146  -0.0005105   0.0012997  -0.0011237   0.0000097  -0.0004987
           25          26          27          28          29          30
    1  -0.0003670  -0.0005126  -0.0004893   0.0003034   0.0005909   0.0000896
    2   0.0004661   0.0006091   0.0003437   0.0008785  -0.0010606   0.0011669
    3   0.0004049  -0.0014027   0.0015388  -0.0000554   0.0004285   0.0004093
           31
    1   0.0001915
    2   0.0001100
    3  -0.0010134
 Max gradient component =       1.570E-03
 RMS gradient           =       7.178E-04
 Gradient time:  CPU 628.42 s  wall 87.96 s

     Step 2	:
        Energy is -2777.3375191173
                            Maximum         Tolerance       Converged?
         Gradient           4.41376761e-03	3.00000000e-04	false
         Displacement       1.05064138e-01	1.20000000e-03	false
         Energy change      5.35619029e-04	1.00000000e-06	false


	OPTIMIZATION CYCLE:	3

 Scaling Magnitude of Eigenvalues
 	Minimum: -25.00000000	 Maximum: 25.00000000
 87 Hessian Eigenvalues to form next step
   0.00199586   0.00200281   0.00210999   0.00224318   0.00248138
   0.00316347   0.01309181   0.01590408   0.01729362   0.01976465
   0.04876728   0.05307666   0.05317755   0.06843225   0.06914143
   0.06965373   0.08073183   0.08086773   0.08203393   0.08444952
   0.08507817   0.08552280   0.08585738   0.08629508   0.08678124
   0.08778092   0.09920521   0.10838881   0.10943839   0.11365901
   0.13728926   0.16900135   0.17377367   0.18592019   0.19213219
   0.19434014   0.19584526   0.20795231   0.21009278   0.21068236
   0.21376432   0.24115981   0.25000000   0.25000000   0.25000000
   0.25000000   0.25000000   0.25000000   0.25000000   0.25000000
   0.25000000   0.25000000   0.25000000   0.25000000   0.25000000
   0.25000000   0.25173487   0.26370602   0.26538943   0.27357094
   0.27428697   0.28057398   0.37316974   0.43697144   0.46516661
   0.47375219   0.50276879   0.50969429   0.52530599   0.52545312
   0.52659090   0.54396190   0.55072333   0.55724222   0.56272903
   0.56433490   0.56507788   0.56799992   0.57190969   0.57648118
   0.57840121   0.58039200   0.58135337   0.58447910   0.67697620
   0.83830063   0.84318223

 Minimum Search taking a RFO step
 Searching for Lambda that minimizes along all modes
	Value of Lambda   -0.00044582
	Norm  of Stepsize  0.13721104
	RMS   of Stepsize  0.01471057

	Performing Iterative Coordinate Back-Transformation

	  Starting from Previous Position

	  iter:	0	rms: 7.4402485728e-02	maxdev: 1.8343408677e-01
	  iter:	1	rms: 1.7588402333e-03	maxdev: 6.0140399798e-03
	  iter:	2	rms: 6.7385654049e-07	maxdev: 2.4063463359e-06	 Success!

	Finished Iterative Coordinate Back-Transformation
 ----------------------------------------------------------------
             Standard Nuclear Orientation (Angstroms)
    I     Atom           X                Y                Z
 ----------------------------------------------------------------
    1      C       4.0798981160     1.4271183725     0.7664422500
    2      F       3.3068687272     2.4902412188     0.9827146354
    3      F       4.2367018892     0.7625624471     1.9126442488
    4      C       3.4103351896     0.5261054689    -0.3199118143
    5      O       2.2057068373     0.0871352782     0.2169795701
    6      C       0.9959778708     0.2672884641    -0.4337103646
    7      C      -0.1330425322    -0.4073089203     0.4296948757
    8      F       0.0218553008     0.0599826722     1.7075773470
    9      F       5.2806598512     1.8516333662     0.3518409815
   10      C       4.2663934697    -0.7165893936    -0.7205503707
   11      F       4.5233039022    -1.4768645064     0.3468608720
   12      F       3.2741194859     1.2837102632    -1.4366418586
   13      F       3.6061030376    -1.4437036661    -1.6200294367
   14      F       5.4293729560    -0.3279450128    -1.2584473024
   15      F       1.0157836605    -0.2658926834    -1.6688240151
   16      F       0.7249991257     1.5745031517    -0.5545388602
   17      O      -1.2797143269     0.0306445045    -0.1683463720
   18      C      -2.5957207344    -0.2970763964     0.2508750861
   19      C       0.0133474873    -1.9672625116     0.5264677113
   20      C      -3.5346489629     0.7658811232    -0.3801365241
   21      F      -2.8970859073    -1.5299288774    -0.1773879974
   22      F      -2.6663959558    -0.2857702738     1.5852538979
   23      S      -5.4027927075     0.4951568207    -0.1277138804
   24      F      -3.1621131570     1.9611329600     0.1502208057
   25      F      -3.2548359854     0.8007263567    -1.7101537587
   26      F      -0.8256856413    -2.4527026595     1.4398556644
   27      F      -0.2308640875    -2.5476360269    -0.6483417708
   28      F       1.2598848113    -2.3051829016     0.9047458494
   29      O      -5.9396742170     1.7290329083    -0.6892710082
   30      O      -5.6554042515    -0.7163710489    -0.8995010692
   31      O      -5.5095049334     0.3557243497     1.3214233403
 ----------------------------------------------------------------
 Molecular Point Group                 C1    NOp =  1
 Largest Abelian Subgroup              C1    NOp =  1
 Nuclear Repulsion Energy =        4357.11560634 hartrees
 There are      129 alpha and      129 beta electrons
 Applying Cartesian multipole field
    Component          Value
    ---------          -----
     (2,0,0)        1.00000E-12
     (0,2,0)        2.00000E-11
     (0,0,2)       -3.00000E-11
 Nucleus-field energy     = 1.6098688913e-08 hartrees
 Requested basis set is 6-311++G(2d,2p)
 There are 224 shells and 845 basis functions
 A cutoff of  1.0D-12 yielded  14737 shell pairs
 There are    222622 function pairs (    251852 Cartesian)
 Smallest overlap matrix eigenvalue = 4.24E-06
 Guess MOs from SCF MO coefficient file

 -----------------------------------------------------------------------
  General SCF calculation program by
  Eric Jon Sundstrom, Paul Horn, Yuezhi Mao, Dmitri Zuev, Alec White,
  David Stuck, Shaama M.S., Shane Yost, Joonho Lee, David Small,
  Daniel Levine, Susi Lehtola, Hugh Burton, Evgeny Epifanovsky,
  Bang C. Huynh
 -----------------------------------------------------------------------
 Exchange:     0.2000 Hartree-Fock + 0.0800 Slater + 0.7200 B88
 Correlation:  0.1900 VWN1RPA + 0.8100 LYP
 Using SG-1 standard quadrature grid
 A restricted SCF calculation will be
 performed using DIIS
 SCF converges when DIIS error is below 1.0e-08
 ---------------------------------------
  Cycle       Energy         DIIS error
 ---------------------------------------
    1   -2777.3203610943      3.83e-04  
    2   -2777.3374896048      4.95e-05  
    3   -2777.3374953983      5.97e-05  
    4   -2777.3376704331      1.05e-05  
    5   -2777.3376745356      5.60e-06  
    6   -2777.3376763983      1.33e-06  
    7   -2777.3376764956      4.56e-07  
    8   -2777.3376765083      9.23e-08  
    9   -2777.3376765086      3.34e-08  
   10   -2777.3376765086      8.93e-09  Convergence criterion met
 ---------------------------------------
 SCF time:   CPU 1558.39s  wall 132.00s 
 SCF   energy = -2777.33767651
 Total energy = -2777.33767651
 
 --------------------------------------------------------------
 
                    Orbital Energies (a.u.)
 --------------------------------------------------------------
 
 Alpha MOs
 -- Occupied --
-88.8988 -24.6943 -24.6942 -24.6942 -24.6937 -24.6931 -24.6918 -24.6899
-24.6682 -24.6657 -24.6654 -24.6635 -24.6632 -24.6463 -24.6224 -24.6204
-24.5905 -24.5904 -19.1630 -19.1217 -18.9576 -18.9570 -18.9567 -10.4139
-10.4137 -10.3857 -10.3803 -10.3454 -10.3289 -10.3122 -10.2437  -7.9540
 -5.9178  -5.9163  -5.9163  -1.3091  -1.3020  -1.2774  -1.2591  -1.2364
 -1.2168  -1.2155  -1.2144  -1.2137  -1.2128  -1.1946  -1.1854  -1.1849
 -1.1837  -1.1608  -1.1426  -1.1024  -1.0794  -1.0355  -0.9797  -0.8449
 -0.8443  -0.8080  -0.7588  -0.7058  -0.6893  -0.6845  -0.6462  -0.6227
 -0.6067  -0.6029  -0.5946  -0.5873  -0.5803  -0.5742  -0.5701  -0.5629
 -0.5606  -0.5572  -0.5552  -0.5391  -0.5328  -0.5221  -0.5026  -0.4955
 -0.4754  -0.4725  -0.4600  -0.4564  -0.4507  -0.4505  -0.4499  -0.4443
 -0.4414  -0.4304  -0.4282  -0.4236  -0.4222  -0.4197  -0.4187  -0.4125
 -0.4076  -0.4055  -0.4009  -0.3976  -0.3963  -0.3939  -0.3921  -0.3909
 -0.3878  -0.3769  -0.3731  -0.3692  -0.3672  -0.3626  -0.3621  -0.3526
 -0.3466  -0.3403  -0.3299  -0.3260  -0.3107  -0.3104  -0.3058  -0.3035
 -0.3030  -0.2810  -0.2772  -0.2013  -0.2010  -0.1697  -0.1681  -0.1568
 -0.1182
 -- Virtual --
  0.0576   0.0689   0.0792   0.0833   0.0999   0.1019   0.1090   0.1162
  0.1210   0.1234   0.1260   0.1347   0.1416   0.1464   0.1515   0.1527
  0.1556   0.1576   0.1676   0.1702   0.1755   0.1770   0.1814   0.1848
  0.1864   0.1916   0.1935   0.1954   0.1994   0.2041   0.2053   0.2105
  0.2129   0.2145   0.2222   0.2236   0.2266   0.2297   0.2348   0.2367
  0.2402   0.2453   0.2506   0.2546   0.2595   0.2609   0.2621   0.2654
  0.2693   0.2712   0.2739   0.2757   0.2802   0.2825   0.2891   0.2914
  0.2932   0.2986   0.3042   0.3060   0.3149   0.3182   0.3209   0.3229
  0.3268   0.3316   0.3331   0.3373   0.3403   0.3442   0.3468   0.3477
  0.3547   0.3610   0.3633   0.3675   0.3685   0.3716   0.3733   0.3760
  0.3776   0.3796   0.3842   0.3894   0.3906   0.3968   0.3991   0.4030
  0.4069   0.4072   0.4147   0.4159   0.4204   0.4222   0.4251   0.4270
  0.4290   0.4317   0.4342   0.4387   0.4427   0.4442   0.4475   0.4498
  0.4514   0.4555   0.4594   0.4615   0.4626   0.4694   0.4714   0.4740
  0.4763   0.4820   0.4830   0.4887   0.4899   0.4938   0.4990   0.5005
  0.5061   0.5082   0.5141   0.5183   0.5215   0.5245   0.5282   0.5293
  0.5406   0.5415   0.5480   0.5505   0.5526   0.5595   0.5648   0.5665
  0.5708   0.5732   0.5791   0.5861   0.5953   0.6038   0.6059   0.6111
  0.6164   0.6227   0.6312   0.6335   0.6428   0.6510   0.6522   0.6596
  0.6635   0.6676   0.6780   0.6915   0.6944   0.7029   0.7080   0.7106
  0.7144   0.7225   0.7268   0.7373   0.7410   0.7603   0.7616   0.7764
  0.7808   0.7946   0.8029   0.8129   0.8216   0.8264   0.8342   0.8529
  0.8581   0.8599   0.8671   0.8744   0.8758   0.8862   0.9073   0.9085
  0.9216   0.9277   0.9604   0.9722   0.9850   0.9930   1.0138   1.0161
  1.0225   1.0268   1.0460   1.0536   1.0620   1.0847   1.0872   1.0898
  1.1194   1.1245   1.1300   1.1392   1.1510   1.1658   1.1691   1.1781
  1.1900   1.2048   1.2083   1.2208   1.2311   1.2427   1.2474   1.2517
  1.2607   1.2775   1.2803   1.2861   1.2940   1.2970   1.3030   1.3127
  1.3170   1.3209   1.3235   1.3346   1.3404   1.3432   1.3531   1.3577
  1.3635   1.3704   1.3780   1.3825   1.3865   1.3941   1.4083   1.4143
  1.4189   1.4279   1.4366   1.4440   1.4468   1.4474   1.4497   1.4563
  1.4574   1.4680   1.4688   1.4725   1.4735   1.4789   1.4830   1.4870
  1.4888   1.4923   1.5013   1.5036   1.5099   1.5160   1.5197   1.5201
  1.5252   1.5298   1.5334   1.5366   1.5401   1.5433   1.5497   1.5567
  1.5616   1.5655   1.5675   1.5754   1.5782   1.5846   1.5899   1.5965
  1.5986   1.6013   1.6138   1.6156   1.6213   1.6280   1.6347   1.6468
  1.6474   1.6548   1.6617   1.6662   1.6768   1.6780   1.6897   1.6932
  1.7023   1.7073   1.7169   1.7227   1.7284   1.7354   1.7489   1.7527
  1.7587   1.7769   1.7828   1.7975   1.8166   1.8391   1.8557   1.8645
  1.8806   1.8852   1.9005   1.9164   1.9286   1.9386   1.9467   1.9607
  1.9614   1.9880   1.9921   1.9929   2.0014   2.0059   2.0099   2.0282
  2.0349   2.0397   2.0505   2.0563   2.0640   2.0711   2.0768   2.0804
  2.0848   2.0959   2.1006   2.1062   2.1251   2.1280   2.1346   2.1398
  2.1447   2.1524   2.1606   2.1670   2.1700   2.1733   2.1753   2.1813
  2.1838   2.1961   2.1994   2.2045   2.2106   2.2245   2.2311   2.2328
  2.2399   2.2439   2.2505   2.2603   2.2793   2.2827   2.2895   2.3004
  2.3069   2.3146   2.3379   2.3405   2.3457   2.3574   2.3698   2.3831
  2.3892   2.3946   2.4035   2.4113   2.4188   2.4324   2.4364   2.4424
  2.4534   2.4636   2.4691   2.4831   2.4913   2.5155   2.5256   2.5296
  2.5364   2.5448   2.5689   2.5734   2.5861   2.6032   2.6162   2.6279
  2.6482   2.6600   2.6757   2.6823   2.6857   2.6903   2.6945   2.7029
  2.7151   2.7202   2.7227   2.7343   2.7535   2.7671   2.7745   2.7879
  2.7899   2.8010   2.8170   2.8305   2.8459   2.8607   2.8679   2.8770
  2.8918   2.8970   2.9384   2.9473   2.9891   3.0169   3.0305   3.0489
  3.0910   3.0992   3.1151   3.1245   3.1628   3.1705   3.1886   3.2079
  3.2238   3.2406   3.2680   3.3584   3.3618   3.3942   3.4167   3.4352
  3.4451   3.4571   3.4801   3.4907   3.4954   3.5046   3.5190   3.5259
  3.5282   3.5510   3.5589   3.5701   3.5782   3.5853   3.6127   3.6176
[...]
  David Stuck, Shaama M.S., Shane Yost, Joonho Lee, David Small,
  Daniel Levine, Susi Lehtola, Hugh Burton, Evgeny Epifanovsky,
  Bang C. Huynh
 -----------------------------------------------------------------------
 Exchange:     0.2000 Hartree-Fock + 0.0800 Slater + 0.7200 B88
 Correlation:  0.1900 VWN1RPA + 0.8100 LYP
 Using SG-1 standard quadrature grid
 A restricted SCF calculation will be
 performed using DIIS
 SCF converges when DIIS error is below 1.0e-08
 ---------------------------------------
  Cycle       Energy         DIIS error
 ---------------------------------------
    1   -2777.3378330516      6.70e-06  
    2   -2777.3378382637      7.82e-07  
    3   -2777.3378382704      9.27e-07  
    4   -2777.3378383159      2.05e-07  
    5   -2777.3378383175      1.18e-07  
    6   -2777.3378383183      2.50e-08  
    7   -2777.3378383184      7.77e-09  Convergence criterion met
 ---------------------------------------
 SCF time:   CPU 1094.94s  wall 85.00s 
 SCF   energy = -2777.33783832
 Total energy = -2777.33783832
 
 --------------------------------------------------------------
 
                    Orbital Energies (a.u.)
 --------------------------------------------------------------
 
 Alpha MOs
 -- Occupied --
-88.8992 -24.6949 -24.6947 -24.6940 -24.6935 -24.6930 -24.6915 -24.6906
-24.6671 -24.6657 -24.6651 -24.6639 -24.6631 -24.6463 -24.6226 -24.6203
-24.5907 -24.5906 -19.1634 -19.1219 -18.9579 -18.9572 -18.9569 -10.4145
-10.4137 -10.3857 -10.3805 -10.3462 -10.3293 -10.3126 -10.2442  -7.9543
 -5.9182  -5.9166  -5.9166  -1.3092  -1.3021  -1.2771  -1.2589  -1.2368
 -1.2169  -1.2152  -1.2143  -1.2135  -1.2128  -1.1941  -1.1849  -1.1847
 -1.1834  -1.1608  -1.1425  -1.1024  -1.0796  -1.0356  -0.9792  -0.8445
 -0.8440  -0.8085  -0.7590  -0.7061  -0.6894  -0.6846  -0.6465  -0.6228
 -0.6068  -0.6032  -0.5947  -0.5870  -0.5804  -0.5741  -0.5699  -0.5626
 -0.5610  -0.5571  -0.5548  -0.5394  -0.5328  -0.5218  -0.5025  -0.4957
 -0.4756  -0.4727  -0.4600  -0.4567  -0.4508  -0.4505  -0.4500  -0.4445
 -0.4415  -0.4305  -0.4274  -0.4234  -0.4218  -0.4198  -0.4187  -0.4125
 -0.4074  -0.4053  -0.4011  -0.3975  -0.3965  -0.3938  -0.3920  -0.3908
 -0.3874  -0.3774  -0.3724  -0.3694  -0.3674  -0.3629  -0.3620  -0.3526
 -0.3467  -0.3405  -0.3300  -0.3261  -0.3106  -0.3104  -0.3059  -0.3042
 -0.3032  -0.2809  -0.2777  -0.2011  -0.2008  -0.1696  -0.1680  -0.1571
 -0.1183
 -- Virtual --
  0.0571   0.0687   0.0786   0.0831   0.0991   0.1016   0.1090   0.1155
  0.1213   0.1234   0.1259   0.1336   0.1413   0.1467   0.1516   0.1525
  0.1554   0.1578   0.1669   0.1708   0.1746   0.1765   0.1812   0.1846
  0.1873   0.1914   0.1933   0.1950   0.1994   0.2037   0.2051   0.2102
  0.2133   0.2140   0.2228   0.2233   0.2269   0.2298   0.2342   0.2351
  0.2401   0.2462   0.2502   0.2539   0.2591   0.2609   0.2612   0.2652
  0.2686   0.2707   0.2740   0.2751   0.2804   0.2825   0.2883   0.2920
  0.2923   0.2981   0.3060   0.3061   0.3140   0.3174   0.3210   0.3222
  0.3267   0.3311   0.3328   0.3355   0.3396   0.3447   0.3473   0.3481
  0.3549   0.3597   0.3631   0.3672   0.3682   0.3719   0.3737   0.3750
  0.3785   0.3795   0.3835   0.3884   0.3912   0.3961   0.3990   0.4025
  0.4061   0.4068   0.4146   0.4172   0.4199   0.4224   0.4251   0.4272
  0.4288   0.4314   0.4346   0.4386   0.4423   0.4442   0.4467   0.4485
  0.4516   0.4547   0.4595   0.4618   0.4626   0.4693   0.4713   0.4753
  0.4758   0.4824   0.4832   0.4870   0.4886   0.4952   0.4978   0.5008
  0.5062   0.5078   0.5160   0.5187   0.5219   0.5240   0.5270   0.5297
  0.5397   0.5406   0.5475   0.5504   0.5527   0.5587   0.5646   0.5660
  0.5712   0.5743   0.5810   0.5877   0.5920   0.6021   0.6058   0.6105
  0.6160   0.6225   0.6303   0.6314   0.6412   0.6487   0.6498   0.6582
  0.6615   0.6696   0.6778   0.6886   0.6940   0.6987   0.7083   0.7130
  0.7154   0.7225   0.7258   0.7357   0.7429   0.7556   0.7626   0.7744
  0.7809   0.7904   0.8020   0.8113   0.8221   0.8263   0.8332   0.8536
  0.8585   0.8599   0.8665   0.8731   0.8751   0.8879   0.9060   0.9129
  0.9180   0.9255   0.9604   0.9723   0.9841   0.9926   1.0127   1.0170
  1.0233   1.0276   1.0466   1.0552   1.0599   1.0818   1.0869   1.0899
  1.1228   1.1254   1.1284   1.1407   1.1477   1.1633   1.1677   1.1752
  1.1886   1.2041   1.2107   1.2221   1.2301   1.2398   1.2466   1.2537
  1.2618   1.2765   1.2809   1.2870   1.2943   1.2983   1.3043   1.3133
  1.3185   1.3211   1.3225   1.3340   1.3373   1.3461   1.3525   1.3555
  1.3634   1.3717   1.3772   1.3843   1.3873   1.3973   1.4081   1.4157
  1.4172   1.4316   1.4358   1.4395   1.4443   1.4471   1.4509   1.4562
  1.4580   1.4667   1.4679   1.4715   1.4728   1.4803   1.4862   1.4875
  1.4879   1.4929   1.5025   1.5036   1.5103   1.5158   1.5174   1.5206
  1.5239   1.5293   1.5334   1.5347   1.5380   1.5411   1.5516   1.5569
  1.5613   1.5631   1.5666   1.5737   1.5780   1.5830   1.5881   1.5931
  1.5961   1.6006   1.6124   1.6147   1.6203   1.6283   1.6376   1.6440
  1.6488   1.6550   1.6631   1.6656   1.6725   1.6792   1.6881   1.6942
  1.7006   1.7066   1.7161   1.7232   1.7288   1.7332   1.7489   1.7519
  1.7573   1.7782   1.7832   1.7926   1.8178   1.8395   1.8510   1.8634
  1.8744   1.8827   1.8994   1.9171   1.9276   1.9385   1.9470   1.9602
  1.9613   1.9863   1.9891   1.9915   1.9998   2.0065   2.0069   2.0295
  2.0313   2.0417   2.0525   2.0555   2.0654   2.0708   2.0764   2.0823
  2.0866   2.0935   2.0999   2.1080   2.1227   2.1279   2.1327   2.1383
  2.1447   2.1490   2.1613   2.1657   2.1716   2.1747   2.1749   2.1823
  2.1831   2.1949   2.2001   2.2047   2.2108   2.2235   2.2265   2.2327
  2.2355   2.2422   2.2541   2.2653   2.2784   2.2831   2.2924   2.3002
  2.3085   2.3158   2.3363   2.3392   2.3467   2.3598   2.3688   2.3786
  2.3853   2.3939   2.4036   2.4092   2.4165   2.4329   2.4355   2.4445
  2.4518   2.4664   2.4705   2.4843   2.4936   2.5152   2.5231   2.5309
  2.5388   2.5490   2.5679   2.5735   2.5827   2.6035   2.6141   2.6272
  2.6471   2.6609   2.6801   2.6821   2.6845   2.6901   2.6928   2.7016
  2.7138   2.7193   2.7221   2.7341   2.7538   2.7654   2.7748   2.7879
  2.7914   2.8029   2.8141   2.8315   2.8426   2.8614   2.8671   2.8810
  2.8916   2.8967   2.9375   2.9468   2.9895   3.0158   3.0309   3.0505
  3.0891   3.1029   3.1145   3.1228   3.1632   3.1673   3.1878   3.2083
  3.2234   3.2429   3.2705   3.3598   3.3629   3.3941   3.4150   3.4352
  3.4445   3.4547   3.4791   3.4899   3.4938   3.5030   3.5142   3.5207
  3.5278   3.5496   3.5611   3.5673   3.5805   3.5843   3.6120   3.6179
  3.6423   3.6445   3.6566   3.6621   3.6722   3.6787   3.6851   3.6869
  3.7027   3.7319   3.7427   3.7579   3.7736   3.7804   3.7929   3.8068
  3.8412   3.8702   3.8870   3.9023   3.9476   3.9708   4.0307   4.1103
  4.2110   4.2268   4.2733   4.2744   4.2828   4.2923   4.3047   4.3227
  4.3253   4.3418   4.3454   4.3613   4.3754   4.3974   4.4316   4.4811
  4.4966   5.1921   5.1996   5.2095   5.2124   5.2398   5.2671   5.2875
  5.2985   5.3136   5.4765   5.4958   5.5404   5.5554   5.8766   5.9379
  6.3460   6.3730   6.4076   6.4103   6.4221   6.4238   6.4257   6.4294
  6.4428   6.4460   6.4497   6.4591   6.4655   6.4714   6.4739   6.4816
  6.4880   6.4933   6.4971   6.5037   6.5048   6.5201   6.5225   6.5261
  6.5336   6.5428   6.5473   6.5490   6.5662   6.5716   6.5913   6.5975
  6.6166   6.6334   6.6504   6.6656   6.6794   6.7020   6.7185   6.7310
  6.7406   6.7736   6.7819   6.8100   6.8238   6.8405   6.8594   6.8643
  6.8700   6.8793   6.8870   6.9088   6.9220   6.9356   6.9784   6.9893
  6.9979   7.0400   7.0914   7.1063   7.1110   7.1180   7.1219   7.1741
  7.2148   7.2210   7.2495   7.3470   7.3524   7.4049   7.4146   7.5341
  7.5399   7.5656   7.6092   7.6617   8.5569   9.0410   9.0482   9.0499
  9.0557   9.0746   9.0808   9.0924   9.0959   9.1036   9.1108   9.1284
  9.1323   9.1463   9.1581   9.1590   9.1596   9.1647   9.1748   9.1797
  9.1809   9.1832   9.1906   9.1950   9.1982   9.2091   9.2180   9.2227
  9.2268   9.2347   9.2383   9.2419   9.2482   9.2622   9.2701   9.2725
  9.2795   9.2824   9.2897   9.2935   9.2950   9.3030   9.3151   9.3223
  9.3270   9.3320   9.3443   9.3988   9.4119   9.4419   9.4462   9.4494
  9.4624   9.4723   9.4812   9.4869   9.4972   9.5193   9.5666   9.6228
  9.6274   9.6474   9.6505   9.6563   9.6608   9.6930   9.6945   9.7108
  9.7170   9.7273   9.7329   9.7352   9.7432   9.7806   9.7871   9.7941
  9.8175   9.8432   9.8578   9.8581   9.8615   9.8712   9.8756   9.9031
  9.9097   9.9224  17.7268  17.7324  17.7749  23.8564  23.9027  23.9443
 23.9531  23.9714  24.0019  24.0294  24.1004  50.0680  50.0795  50.0843
 50.1295  50.1700  66.8563  66.8635  66.8649  66.8914  66.9086  66.9144
 66.9232  66.9302  66.9314  66.9386  66.9588  66.9684  66.9718  66.9861
 66.9942  66.9987  67.0384 189.7088
 --------------------------------------------------------------
 
          Ground-State Mulliken Net Atomic Charges

     Atom                 Charge (a.u.)
  ----------------------------------------
      1 C                     1.345409
      2 F                    -0.284811
      3 F                    -0.285887
      4 C                    -0.460225
      5 O                    -0.214903
      6 C                     0.620964
      7 C                     0.053310
      8 F                    -0.275532
      9 F                    -0.316459
     10 C                     1.270241
     11 F                    -0.287528
     12 F                    -0.301454
     13 F                    -0.287639
     14 F                    -0.313252
     15 F                    -0.311056
     16 F                    -0.321739
     17 O                    -0.402687
     18 C                     0.639556
     19 C                     1.347911
     20 C                     0.472394
     21 F                    -0.269100
     22 F                    -0.278825
     23 S                     1.301375
     24 F                    -0.307851
     25 F                    -0.308709
     26 F                    -0.290724
     27 F                    -0.273890
     28 F                    -0.332397
     29 O                    -0.614366
     30 O                    -0.648132
     31 O                    -0.663992
  ----------------------------------------
  Sum of atomic charges =    -1.000000

 -----------------------------------------------------------------
                    Cartesian Multipole Moments
 -----------------------------------------------------------------
    Charge (ESU x 10^10)
                -4.8032
    Dipole Moment (Debye)
         X      22.1625      Y      -2.3639      Z       0.2883
       Tot      22.2901
    Quadrupole Moments (Debye-Ang)
        XX    -313.6437     XY      13.7898     YY    -187.9071
        XZ      -2.3613     YZ       0.6693     ZZ    -186.2781
    Octopole Moments (Debye-Ang^2)
       XXX     805.1603    XXY     -85.6319    XYY      74.9038
       YYY     -24.4216    XXZ      19.1399    XYZ      -0.3115
       YYZ       4.8907    XZZ      66.0059    YZZ      -5.6305
       ZZZ      -2.9432
    Hexadecapole Moments (Debye-Ang^3)
      XXXX  -18120.6387   XXXY     531.7470   XXYY   -2888.2328
      XYYY     164.3834   YYYY   -1952.2071   XXXZ     -84.8241
      XXYZ      17.3568   XYYZ     -22.8500   YYYZ      21.6614
      XXZZ   -2682.5479   XYZZ      50.8151   YYZZ    -505.8232
      XZZZ      40.6513   YZZZ      12.6724   ZZZZ   -1097.2230
 -----------------------------------------------------------------
 Calculating analytic gradient of the SCF energy
 Gradient of SCF Energy
            1           2           3           4           5           6
    1  -0.0000157   0.0000101  -0.0000030   0.0000305  -0.0000367   0.0000310
    2  -0.0000153  -0.0000176  -0.0000111   0.0000243   0.0000023  -0.0000413
    3   0.0000022   0.0000360   0.0000132  -0.0000204   0.0000262  -0.0000293
            7           8           9          10          11          12
    1  -0.0000197   0.0000070   0.0000017   0.0000058   0.0000009  -0.0000066
    2  -0.0000051  -0.0000081   0.0000090   0.0000240  -0.0000039   0.0000081
    3  -0.0000403   0.0000147   0.0000243   0.0000045  -0.0000294   0.0000218
           13          14          15          16          17          18
    1   0.0000083  -0.0000045  -0.0000088  -0.0000220   0.0000064   0.0000042
    2   0.0000099  -0.0000016   0.0000246   0.0000372  -0.0000035  -0.0000028
    3  -0.0000149  -0.0000118   0.0000155   0.0000243   0.0000105  -0.0000060
           19          20          21          22          23          24
    1   0.0000384   0.0000007   0.0000045  -0.0000070  -0.0000564  -0.0000107
    2   0.0000135   0.0000168   0.0000010  -0.0000149  -0.0000003  -0.0000085
    3   0.0000556   0.0000196  -0.0000204  -0.0000032   0.0000195   0.0000271
           25          26          27          28          29          30
    1  -0.0000048   0.0000130  -0.0000073  -0.0000338   0.0000232   0.0000204
    2   0.0000053  -0.0000149  -0.0000108  -0.0000103   0.0000222  -0.0000119
    3   0.0000011  -0.0000464  -0.0000668  -0.0000356   0.0000117  -0.0000180
           31
    1   0.0000308
    2  -0.0000163
    3   0.0000147
 Max gradient component =       6.685E-05
 RMS gradient           =       2.153E-05
 Gradient time:  CPU 625.86 s  wall 87.84 s

     Step 12	:
        Energy is -2777.3378383184
                            Maximum         Tolerance       Converged?
         Gradient           4.90962820e-05	3.00000000e-04	true
         Displacement       2.86227091e-03	1.20000000e-03	false
         Energy change      2.06111508e-07	1.00000000e-06	true

	 Optimization Converged in 12 cycles

 *****************************************************
             End of BFGS Algorithm
 *****************************************************
		----------------------------------
		   Verification of Optimization
		----------------------------------

 Eigenvalues of Hessian in Optimization Verification
   0.00165496   0.00188443   0.00286638   0.00305491   0.00344380
   0.00606137   0.00677674   0.01431455   0.01756452   0.02390990
   0.04873842   0.05300792   0.05340427   0.06868102   0.07204870
   0.07320210   0.08061645   0.08093489   0.08246633   0.08505114
   0.08564231   0.08612774   0.08656305   0.08764151   0.08871859
   0.09435762   0.10265064   0.10848106   0.10941412   0.11396787
   0.13755109   0.17112877   0.17408427   0.17948736   0.19267260
   0.19747138   0.20092496   0.20556303   0.21026199   0.21156814
   0.23542388   0.24128984   0.24577033   0.24751763   0.24875441
   0.24924603   0.24993915   0.25000000   0.25000000   0.25000000
   0.25000000   0.25040165   0.25302906   0.26052342   0.26472609
   0.26892347   0.27272529   0.27456177   0.27979734   0.32288052
   0.37384589   0.38866494   0.42260696   0.44996869   0.45875039
   0.48623971   0.49303286   0.51212361   0.52141615   0.52598743
   0.52702134   0.54379698   0.54855231   0.55066062   0.56157372
   0.56323625   0.56411631   0.56820254   0.57047534   0.57158784
   0.57604642   0.58076521   0.58264844   0.59393830   0.68573474
   0.83776038   0.84297955

 Found a minimum
		---------------------------------
		       End of Verification
		---------------------------------

 Final energy is -2777.337838318430

	******************************
	**  OPTIMIZATION CONVERGED  **
	******************************
 ----------------------------------------------------------------
             Standard Nuclear Orientation (Angstroms)
    I     Atom           X                Y                Z
 ----------------------------------------------------------------
    1      C       3.9998360070     1.4717034166     0.7486585204
    2      F       3.1643644014     2.4930889133     0.9285182341
    3      F       4.1663067206     0.8400094277     1.9128277261
    4      C       3.4127179860     0.5081870818    -0.3303778835
    5      O       2.2159207672     0.0012952165     0.1667430433
    6      C       1.0017405605     0.2248419184    -0.4602789576
    7      C      -0.1303091193    -0.4469638821     0.4002750988
    8      F       0.0357979004     0.0087240904     1.6822108152
    9      F       5.1842775306     1.9580990786     0.3541112003
   10      C       4.3333681619    -0.7066633607    -0.6673571250
   11      F       4.5576931526    -1.4536053728     0.4158894646
   12      F       3.2777371732     1.2265324803    -1.4727153749
   13      F       3.7424924601    -1.4605849169    -1.5946088511
   14      F       5.5107057058    -0.2900805280    -1.1500575250
   15      F       0.9989829261    -0.2795779146    -1.7084147942
   16      F       0.7538498337     1.5395625439    -0.5496839800
   17      O      -1.2762192666     0.0077319354    -0.1865348038
   18      C      -2.5929613149    -0.3018646133     0.2458375325
   19      C      -0.0002062210    -2.0087796102     0.4818654449
   20      C      -3.5233083059     0.7769566997    -0.3683863784
   21      F      -2.9133089781    -1.5288368948    -0.1877522655
   22      F      -2.6498211897    -0.2984887404     1.5814562550
   23      S      -5.3909369599     0.5536790450    -0.0706816262
   24      F      -3.1127181336     1.9681098588     0.1436844997
   25      F      -3.2728084198     0.7969901741    -1.7050135206
   26      F      -0.8610020668    -2.4994401374     1.3722513180
   27      F      -0.2304468280    -2.5725925146    -0.7054827127
   28      F       1.2344256672    -2.3664827319     0.8777099042
   29      O      -5.9142558232     1.7853977293    -0.6525903703
   30      O      -5.6873705675    -0.6718111048    -0.8062913291
   31      O      -5.4707154417     0.4532075599     1.3842791729
 ----------------------------------------------------------------
 Molecular Point Group                 C1    NOp =  1
 Largest Abelian Subgroup              C1    NOp =  1
 Nuclear Repulsion Energy =        4354.97164323 hartrees
 There are      129 alpha and      129 beta electrons

Z-matrix Print:
$molecule
-1 1
S 
O  1 1.459319
O  1 1.459733 2 115.774188
O  1 1.460606 2 115.828868 3 -140.184321 0
C  1 1.904342 2 100.975782 3 109.947526 0
F  5 1.360017 1 109.871302 2 53.778911 0
F  5 1.360045 1 109.633286 2 -64.212832 0
C  5 1.551345 1 116.404908 2 174.482784 0
F  8 1.336833 5 111.611235 1 -64.278450 0
F  8 1.340180 5 111.421288 1 57.041894 0
O  8 1.420072 5 106.493546 1 175.578647 0
C  11 1.365359 8 125.081695 5 160.996114 0
F  12 1.370621 11 113.139328 8 -64.347027 0
C  12 1.569348 11 115.046086 8 57.417616 0
F  14 1.332105 12 110.349529 11 -70.780848 0
F  14 1.334425 12 111.095411 11 50.390877 0
F  14 1.344976 12 110.859713 11 170.401149 0
C  12 1.572709 11 103.102393 8 -178.861062 0
F  18 1.340870 12 108.798758 11 50.747354 0
F  18 1.346213 12 110.229663 11 -67.223730 0
O  18 1.384689 12 108.326627 11 170.938837 0
C  21 1.391543 18 122.246848 12 -178.015970 0
F  22 1.356162 21 114.095833 18 -0.230954 0
C  22 1.561094 21 107.508884 18 -118.469635 0
F  24 1.333164 22 109.198286 21 60.926791 0
F  24 1.334791 22 111.064004 21 -59.075363 0
F  24 1.338904 22 110.749034 21 -179.829717 0
C  22 1.561215 21 107.537769 18 118.298719 0
F  28 1.331762 22 109.314070 21 -63.031260 0
F  28 1.334931 22 110.952659 21 57.043002 0
F  28 1.339832 22 110.668958 21 177.626836 0
$end

 -----------------------------------------------------------------------
                  END OF GEOMETRY OPTIMIZER USING LIBOPT3               
 -----------------------------------------------------------------------
 Total job time:  2833.72s(wall), 29838.98s(cpu) 
 Fri Apr 25 16:37:01 2025

        *************************************************************
        *                                                           *
        *  Thank you very much for using Q-Chem.  Have a nice day.  *
        *                                                           *
        *************************************************************


