
Running Job 1 of 1 input.com
qchem input.com_2043493.0 /scratch/hlong/8618285/qchem2043493/ 1
/nopt/nrel/apps/software/q-chem/6.2/exe/qcprog.exe_s input.com_2043493.0 /scratch/hlong/8618285/qchem2043493/
                  Welcome to Q-Chem
     A Quantum Leap Into The Future Of Chemistry


 Q-Chem 6.2, Q-Chem, Inc., Pleasanton, CA (2024)

 License issued to: National Renewable Energy Laboratory (site)

 E. Epifanovsky,  A. T. B. Gilbert,  Xintian Feng,  Joonho Lee,  Yuezhi Mao,  
 N. Mardirossian,  P. Pokhilko,  A. White,  M. Wormit,  M. P. Coons,  
 A. L. Dempwolff,  Zhengting Gan,  D. Hait,  P. R. Horn,  L. D. Jacobson,  
 I. Kaliman,  J. Kussmann,  A. W. Lange,  Ka Un Lao,  D. S. Levine,  Jie Liu,  
 S. C. McKenzie,  A. F. Morrison,  K. D. Nanda,  F. Plasser,  D. R. Rehn,  
 M. L. Vidal,  Zhi-Qiang You,  Ying Zhu,  Huseyin Aksu,  B. Alam,  
 B. Albrecht,  A. Aldossary,  E. Alguire,  J. H. Andersen,  
 J. E. Arias-Martinez,  V. Athavale,  D. Barton,  K. Begam,  A. Behn,  
 N. Bellonzi,  Y. A. Bernard,  E. J. Berquist,  H. Burton,  A. Carreras,  
 K. Carter-Fenk,  Mathew Chow,  Romit Chakraborty,  Chandrima Chakravarty,  
 Junhan Chen,  A. D. Chien,  K. D. Closser,  V. Cofer-Shabica,  L. Cunha,  
 S. Dasgupta,  Jia Deng,  Joseph Dickinson,  M. de Wergifosse,  
 M. Diedenhofen,  Hainam Do,  Wenjie Dou,  S. Ehlert,  Po-Tung Fang,  
 S. Fatehi,  Qingguo Feng,  Jonathan Fetherolf,  T. Friedhoff,  
 Thomas Froitzheim,  Sarai Folkestad,  B. Ganoe,  J. Gayvert,  Qinghui Ge,  
 G. Gidofalvi,  M. Gimferrer,  M. Goldey,  Montgomery Gray,  J. Gomes,  
 C. Gonzalez-Espinoza,  S. Gulania,  A. Gunina,  J. A. Gyamfi,  
 M. W. D. Hanson-Heine,  P. H. P. Harbach,  A. W. Hauser,  M. F. Herbst,  
 M. Hernandez Vera,  M. Hodecker,  Z. C. Holden,  S. Houck,  Xunkun Huang,  
 Kerwin Hui,  B. C. Huynh,  K. Ikeda,  M. Ivanov,  Nayanthara K. Jayadev,  
 Hyunjun Ji,  Zuxin Jin,  Hanjie Jiang,  Subrata Jana,  B. Kaduk,  
 S. Kaehler,  R. Kang,  K. Khistyaev,  Jaehoon Kim,  Yongbin Kim,  
 P. Klunzinger,  Z. Koczor-Benda,  Joong Hoon Koh,  D. Kosenkov,  
 Saikiran Kotaru,  L. Koulias,  T. Kowalczyk,  C. M. Krauter,  K. Kue,  
 A. Kunitsa,  T. Kus,  A. Landau,  K. V. Lawler,  D. Lefrancois,  S. Lehtola,  
 Rain Li,  Shaozhi Li,  Tao E. Li,  Yi-Pei Li,  Jiashu Liang,  M. Liebenthal,  
 Hung-Hsuan Lin,  You-Sheng Lin,  Fenglai Liu,  Kuan-Yu Liu,  Xiao Liu,  
 M. Loipersberger,  A. Luenser,  C. Malbon,  Aniket Mandal,  Manisha,  
 A. Manjanath,  P. Manohar,  E. Mansoor,  S. F. Manzer,  Shan-Ping Mao,  
 A. V. Marenich,  T. Markovich,  S. Mason,  F. Matz,  S. A. Maurer,  
 Samuel May,  Alexandra McIsaac,  P. F. McLaughlin,  M. F. S. J. Menger,  
 J.-M. Mewes,  S. A. Mewes,  P. Morgante,  Mohammad Mostafanejad,  
 Madhubani Mukherjee,  J. W. Mullinax,  Quyen Nguyen,  Avik Kumar Ojha,  
 K. J. Oosterbaan,  Eno Paenurk,  Xiaoliang Pan,  G. Paran,  V. Parravicini,  
 Alexander C. Paul,  Suranjan K. Paul,  F. Pavosevic,  Zheng Pei,  S. Prager,  
 E. I. Proynov,  E. Ramos,  B. Rana,  A. E. Rask,  A. Rettig,  R. M. Richard,  
 F. Rob,  E. Rossomme,  T. Scheele,  M. Scheurer,  M. Schneider,  
 P. E. Schneider,  Tim K. Schramm,  N. Sergueev,  S. M. Sharada,  
 Hengyuan Shen,  W. Skomorowski,  D. W. Small,  C. J. Stein,  
 Alistair J. Sterling,  Yingli Su,  Yu-Chuan Su,  E. J. Sundstrom,  
 J. Talbot,  Zhen Tao,  J. Thirman,  Hung-Yi Tsai,  T. Tsuchimochi,  
 N. M. Tubman,  C. Utku,  S. P. Veccham,  O. Vydrov,  Rahel Weiss,  
 J. Wenzel,  Jonathan Wong,  J. Witte,  H. Wu,  Yanze Wu,  A. Yamada,  
 Chou-Hsun Yang,  Kun Yao,  S. Yeganeh,  S. R. Yost,  Qi Yu,  A. Zech,  
 F. Zeller,  Chongxiao Zhao,  Igor Ying Zhang,  Xing Zhang,  Yu Zhang,  
 D. Zuev,  A. Aspuru-Guzik,  A. T. Bell,  N. A. Besley,  K. B. Bravaya,  
 B. R. Brooks,  D. Casanova,  Jeng-Da Chai,  Hsing-Ta Chen,  S. Coriani,  
 C. J. Cramer,  A. E. DePrince, III,  R. A. DiStasio Jr.,  A. Dreuw,  
 B. D. Dunietz,  T. R. Furlani,  W. A. Goddard III,  S. Grimme,  
 S. Hammes-Schiffer,  T. Head-Gordon,  W. J. Hehre,  Chao-Ping Hsu,  
 T.-C. Jagau,  Yousung Jung,  A. Klamt,  Jing Kong,  D. S. Lambrecht,  
 Xiangyuan Li,  WanZhen Liang,  N. J. Mayhall,  C. W. McCurdy,  J. B. Neaton,  
 T. Neudecker,  C. Ochsenfeld,  J. A. Parkhill,  R. Peverati,  
 V. A. Rassolov,  Haisheng Ren,  Yihan Shao,  L. V. Slipchenko,  
 R. P. Steele,  J. E. Subotnik,  A. J. W. Thom,  A. Tkatchenko,  
 D. G. Truhlar,  T. Van Voorhis,  Fan Wang,  T. A. Wesolowski,  K. B. Whaley,  
 H. L. Woodcock III,  P. M. Zimmerman,  S. Faraji,  P. M. W. Gill,  
 M. Head-Gordon,  J. M. Herbert,  A. I. Krylov

 Contributors to earlier versions of Q-Chem not listed above: 
 R. D. Adamson,  B. Austin,  R. Baer,  J. Baker,  G. J. O. Beran,  
 K. Brandhorst,  S. T. Brown,  E. F. C. Byrd,  Arup K. Chakraborty,  
 G. K. L. Chan,  Chun-Min Chang,  Yunqing Chen,  C.-L. Cheng,  
 Siu Hung Chien,  D. M. Chipman,  D. L. Crittenden,  H. Dachsel,  
 R. J. Doerksen,  A. D. Dutoi,  R. G. Edgar,  J. Fosso-Tande,  
 L. Fusti-Molnar,  D. Ghosh,  A. Ghysels,  A. Golubeva-Zadorozhnaya,  
 J. Gonthier,  M. S. Gordon,  S. R. Gwaltney,  G. Hawkins,  J. E. Herr,  
 A. Heyden,  S. Hirata,  E. G. Hohenstein,  G. Kedziora,  F. J. Keil,  
 C. Kelley,  Jihan Kim,  R. A. King,  R. Z. Khaliullin,  P. P. Korambath,  
 W. Kurlancheek,  A. Laurent,  A. M. Lee,  M. S. Lee,  S. V. Levchenko,  
 Ching Yeh Lin,  D. Liotard,  E. Livshits,  R. C. Lochan,  I. Lotan,  
 L. A. Martinez-Martinez,  P. E. Maslen,  N. Nair,  D. P. O'Neill,  
 D. Neuhauser,  E. Neuscamman,  C. M. Oana,  R. Olivares-Amaya,  R. Olson,  
 T. M. Perrine,  B. Peters,  P. A. Pieniazek,  A. Prociuk,  Y. M. Rhee,  
 J. Ritchie,  M. A. Rohrdanz,  E. Rosta,  N. J. Russ,  H. F. Schaefer III,  
 M. W. Schmidt,  N. E. Schultz,  S. Sharma,  N. Shenvi,  C. D. Sherrill,  
 A. C. Simmonett,  A. Sodt,  T. Stein,  D. Stuck,  K. S. Thanthiriwatte,  
 V. Vanovschi,  L. Vogt,  Tao Wang,  A. Warshel,  M. A. Watson,  
 C. F. Williams,  Q. Wu,  X. Xu,  Jun Yang,  W. Zhang,  Yan Zhao

   Please cite Q-Chem as follows:
  "Software for the frontiers of quantum chemistry:
   An overview of developments in the Q-Chem 5 package"
   J. Chem. Phys. 155, 084801 (2021)
   https://doi.org/10.1063/5.0055522 (open access)

 Q-Chem 6.2.0 for Intel X86 EM64T Linux

 Parts of Q-Chem use Armadillo 9.900.5 (Nocturnal Misbehaviour).
 http://arma.sourceforge.net/

 Q-Chem begins on Fri Apr 25 15:46:39 2025  

 Host: 
0

     Scratch files written to /scratch/hlong/8618285/qchem2043493//
 May224 |scratch|qcdevops|jenkins|workspace|build_RNUM -1
 Processing $rem in /nopt/nrel/apps/software/q-chem/6.2/config/preferences:
 Processing $rem in /home/hlong/.qchemrc:

 Checking the input file for inconsistencies... 	...done.

--------------------------------------------------------------
User input:
--------------------------------------------------------------
$molecule
-1 1
C          4.11643       -1.48041       -0.71113
F          3.39409       -2.59960       -0.81726
F          4.22860       -0.91587       -1.91896
C          3.42207       -0.51789        0.28967
O          2.19271       -0.17339       -0.26905
C          1.01327       -0.29967        0.45351
C         -0.13361        0.37168       -0.37411
F          0.01715       -0.04365       -1.67355
F          5.34489       -1.80262       -0.27209
C          4.22273        0.78391        0.56775
F          4.46092        1.43773       -0.57729
F          3.31939       -1.18796        1.47185
F          3.52926        1.58045        1.38565
F          5.39884        0.49440        1.14858
F          1.10896        0.29403        1.66422
F          0.73814       -1.59933        0.65313
O         -1.28286       -0.10001        0.20694
C         -2.58410        0.27338       -0.22864
C         -0.00545        1.92942       -0.40146
C         -3.56377       -0.78378        0.32897
F         -2.86180        1.50249        0.24397
F         -2.61581        0.32085       -1.56915
S         -5.40120       -0.42965        0.07649
F         -3.22844       -1.95967       -0.27102
F         -3.29595       -0.90240        1.65906
F         -0.81928        2.44862       -1.32551
F         -0.30038        2.45428        0.79272
F          1.25554        2.29549       -0.71642
O         -6.01000       -1.70152        0.51923
O         -5.62749        0.73480        0.95974
O         -5.46900       -0.15244       -1.37593
$end

$rem
job_type=opt
basis=6-31G*
method=b3lyp
$end
--------------------------------------------------------------
 ----------------------------------------------------------------
             Standard Nuclear Orientation (Angstroms)
    I     Atom           X                Y                Z
 ----------------------------------------------------------------
    1      C       4.1164293037     1.4804112804     0.7111283217
    2      F       3.3940892428     2.5996013103     0.8172575923
    3      F       4.2285995215     0.9158721909     1.9189587271
    4      C       3.4220692212     0.5178904848    -0.2896708558
    5      O       2.1927093276     0.1733908182     0.2690495840
    6      C       1.0132692118     0.2996701973    -0.4535103354
    7      C      -0.1336106194    -0.3716792626     0.3741103366
    8      F       0.0171495449     0.0436517190     1.6735500037
    9      F       5.3448892165     1.8026210364     0.2720878986
   10      C       4.2227292691    -0.7839096682    -0.5677500015
   11      F       4.4609194837    -1.4377287960     0.5772904519
   12      F       3.3193889999     1.1879595941    -1.4718513415
   13      F       3.5292592023    -1.5804503271    -1.3856493033
   14      F       5.3988391631    -0.4944000218    -1.1485803924
   15      F       1.1089590729    -0.2940307011    -1.6642199058
   16      F       0.7381390932     1.5993300293    -0.6531312660
   17      O      -1.2828607379     0.1000102244    -0.2069398455
   18      C      -2.5841006477    -0.2733795392     0.2286406266
   19      C      -0.0054505087    -1.9294192334     0.4014614819
   20      C      -3.5637708029     0.7837799769    -0.3289700183
   21      F      -2.8618006337    -1.5024899114    -0.2439684135
   22      F      -2.6158104456    -0.3208485393     1.5691506668
   23      S      -5.4012007412     0.4296500398    -0.0764894810
   24      F      -3.2284407944     1.9596704484     0.2710190530
   25      F      -3.2959510083     0.9023990011    -1.6590601467
   26      F      -0.8192803361    -2.4486185984     1.3255119907
   27      F      -0.3003806499    -2.4542801462    -0.7927180820
   28      F       1.2555395631    -2.2954889116     0.7164215685
   29      O      -6.0100008940     1.7015196672    -0.5192303414
   30      O      -5.6274907924    -0.7348006359    -0.9597385771
   31      O      -5.4690005067     0.1524411208     1.3759307362
 ----------------------------------------------------------------
 Molecular Point Group                 C1    NOp =  1
 Largest Abelian Subgroup              C1    NOp =  1
 Nuclear Repulsion Energy =        4364.44217231 hartrees
 There are      129 alpha and      129 beta electrons
 Requested basis set is 6-31G(d)
 There are 125 shells and 469 basis functions

 Total QAlloc Memory Limit 224000 MB
 Mega-Array Size       188 MB
 MEM_STATIC part       192 MB

 -----------------------------------------------------------------------
                STARTING GEOMETRY OPTIMIZER USING LIBOPT3
                by Peter F. McLaughlin, Yu Zhang, Evgeny Epifanovsky
 -----------------------------------------------------------------------

              Initial Energy and Gradient Calculation
   -- Checking Topology for Ill-Behaving Coordinates --

 -------------------------------------------
   Coordinate       |  Removed | Additions 
 -------------------------------------------
	Bonds                     0          0
	Angles                    0          0
	Torsions                  0          0
	Co-Linear Type5s          0          0
	Co-Linear Type6s          0          0
 -------------------------------------------
     Done Checking Topology
 ----------------------------------------------------------------
             Standard Nuclear Orientation (Angstroms)
    I     Atom           X                Y                Z
 ----------------------------------------------------------------
    1      C       4.1164293037     1.4804112804     0.7111283217
    2      F       3.3940892428     2.5996013103     0.8172575923
    3      F       4.2285995215     0.9158721909     1.9189587271
    4      C       3.4220692212     0.5178904848    -0.2896708558
    5      O       2.1927093276     0.1733908182     0.2690495840
    6      C       1.0132692118     0.2996701973    -0.4535103354
    7      C      -0.1336106194    -0.3716792626     0.3741103366
    8      F       0.0171495449     0.0436517190     1.6735500037
    9      F       5.3448892165     1.8026210364     0.2720878986
   10      C       4.2227292691    -0.7839096682    -0.5677500015
   11      F       4.4609194837    -1.4377287960     0.5772904519
   12      F       3.3193889999     1.1879595941    -1.4718513415
   13      F       3.5292592023    -1.5804503271    -1.3856493033
   14      F       5.3988391631    -0.4944000218    -1.1485803924
   15      F       1.1089590729    -0.2940307011    -1.6642199058
   16      F       0.7381390932     1.5993300293    -0.6531312660
   17      O      -1.2828607379     0.1000102244    -0.2069398455
   18      C      -2.5841006477    -0.2733795392     0.2286406266
   19      C      -0.0054505087    -1.9294192334     0.4014614819
   20      C      -3.5637708029     0.7837799769    -0.3289700183
   21      F      -2.8618006337    -1.5024899114    -0.2439684135
   22      F      -2.6158104456    -0.3208485393     1.5691506668
   23      S      -5.4012007412     0.4296500398    -0.0764894810
   24      F      -3.2284407944     1.9596704484     0.2710190530
   25      F      -3.2959510083     0.9023990011    -1.6590601467
   26      F      -0.8192803361    -2.4486185984     1.3255119907
   27      F      -0.3003806499    -2.4542801462    -0.7927180820
   28      F       1.2555395631    -2.2954889116     0.7164215685
   29      O      -6.0100008940     1.7015196672    -0.5192303414
   30      O      -5.6274907924    -0.7348006359    -0.9597385771
   31      O      -5.4690005067     0.1524411208     1.3759307362
 ----------------------------------------------------------------
 Molecular Point Group                 C1    NOp =  1
 Largest Abelian Subgroup              C1    NOp =  1
 Nuclear Repulsion Energy =        4364.44217231 hartrees
 There are      129 alpha and      129 beta electrons
 Requested basis set is 6-31G(d)
 There are 125 shells and 469 basis functions
 A cutoff of  1.0D-12 yielded   4002 shell pairs
 There are     63725 function pairs
 Smallest overlap matrix eigenvalue = 1.28E-03

 Scale SEOQF with 1.000000e-02/1.000000e-01/1.000000e-01

 Standard Electronic Orientation quadrupole field applied
 Nucleus-field energy     =     0.0000000181 hartrees
 Guess from superposition of atomic densities
 Warning:  Energy on first SCF cycle will be non-variational
 SAD guess density has 257.000000 electrons

 -----------------------------------------------------------------------
  General SCF calculation program by
  Eric Jon Sundstrom, Paul Horn, Yuezhi Mao, Dmitri Zuev, Alec White,
  David Stuck, Shaama M.S., Shane Yost, Joonho Lee, David Small,
  Daniel Levine, Susi Lehtola, Hugh Burton, Evgeny Epifanovsky,
  Bang C. Huynh
 -----------------------------------------------------------------------
 Exchange:     0.2000 Hartree-Fock + 0.0800 Slater + 0.7200 B88
 Correlation:  0.1900 VWN1RPA + 0.8100 LYP
 Using SG-1 standard quadrature grid
 using 104 threads for integral computing
 -------------------------------------------------------
 OpenMP Integral computing Module                
 Release: version 1.0, May 2013, Q-Chem Inc. Pittsburgh 
 -------------------------------------------------------
 A restricted SCF calculation will be
 performed using DIIS
 SCF converges when DIIS error is below 1.0e-08
 ---------------------------------------
  Cycle       Energy         DIIS error
 ---------------------------------------
    1   -2781.9996752045      3.39e-02  
    2   -2775.6552183812      6.31e-03  
    3   -2771.8911646239      1.30e-02  
    4   -2776.2981573541      2.34e-03  
    5   -2776.4220529572      5.71e-04  
    6   -2776.4278049038      4.11e-04  
    7   -2776.4309916727      1.22e-04  
    8   -2776.4312436011      5.83e-05  
    9   -2776.4313087424      1.71e-05  
   10   -2776.4313145489      4.27e-06  
   11   -2776.4313148430      1.46e-06  
   12   -2776.4313148840      4.15e-07  
   13   -2776.4313148875      1.15e-07  
   14   -2776.4313148877      6.20e-08  
   15   -2776.4313148877      1.51e-08  
   16   -2776.4313148877      5.88e-09  Convergence criterion met
 ---------------------------------------
 SCF time:   CPU 694.25s  wall 17.00s 
 SCF   energy = -2776.43131489
 Total energy = -2776.43131489
 
 --------------------------------------------------------------
 
                    Orbital Energies (a.u.)
 --------------------------------------------------------------
 
 Alpha MOs
 -- Occupied --
-88.9417 -24.6988 -24.6979 -24.6976 -24.6975 -24.6969 -24.6965 -24.6937
-24.6738 -24.6695 -24.6685 -24.6667 -24.6666 -24.6477 -24.6256 -24.6239
-24.5913 -24.5911 -19.1711 -19.1293 -18.9626 -18.9618 -18.9615 -10.4085
-10.4079 -10.3785 -10.3747 -10.3359 -10.3215 -10.3025 -10.2352  -7.9628
 -5.9279  -5.9270  -5.9269  -1.2837  -1.2762  -1.2504  -1.2347  -1.2109
 -1.1924  -1.1909  -1.1892  -1.1883  -1.1881  -1.1684  -1.1609  -1.1594
 -1.1584  -1.1338  -1.1167  -1.0760  -1.0570  -1.0121  -0.9457  -0.8123
 -0.8113  -0.7860  -0.7361  -0.6818  -0.6648  -0.6596  -0.6206  -0.5973
 -0.5809  -0.5763  -0.5681  -0.5620  -0.5533  -0.5478  -0.5431  -0.5363
 -0.5327  -0.5296  -0.5272  -0.5110  -0.5060  -0.4948  -0.4746  -0.4701
 -0.4508  -0.4467  -0.4337  -0.4301  -0.4242  -0.4235  -0.4216  -0.4178
 -0.4156  -0.4033  -0.4021  -0.3975  -0.3959  -0.3931  -0.3922  -0.3857
 -0.3816  -0.3793  -0.3753  -0.3719  -0.3707  -0.3684  -0.3659  -0.3648
 -0.3621  -0.3509  -0.3480  -0.3419  -0.3413  -0.3361  -0.3345  -0.3248
 -0.3189  -0.3143  -0.3020  -0.2976  -0.2840  -0.2826  -0.2816  -0.2772
 -0.2747  -0.2569  -0.2498  -0.1680  -0.1676  -0.1380  -0.1361  -0.1282
 -0.0905
 -- Virtual --
  0.0970   0.1131   0.1400   0.1568   0.1979   0.2043   0.2112   0.2129
  0.2290   0.2368   0.2401   0.2467   0.2541   0.2587   0.2669   0.2721
  0.2774   0.2887   0.2992   0.3040   0.3079   0.3168   0.3230   0.3275
  0.3396   0.3601   0.3826   0.3888   0.4131   0.4279   0.4774   0.4836
  0.4912   0.5030   0.5134   0.5244   0.5314   0.5438   0.5516   0.5574
  0.5602   0.5752   0.5803   0.5998   0.6111   0.6166   0.6567   0.6664
  0.6684   0.6813   0.6904   0.6961   0.7016   0.7277   0.7407   0.7642
  0.7733   0.7985   0.8246   0.8861   0.9086   0.9181   0.9359   0.9504
  0.9624   0.9702   0.9834   0.9931   1.0081   1.0214   1.0246   1.0493
  1.0628   1.0750   1.0802   1.0946   1.1037   1.1121   1.1208   1.1288
  1.1374   1.1418   1.1475   1.1569   1.1601   1.1683   1.1799   1.1858
  1.1935   1.1985   1.2029   1.2083   1.2163   1.2245   1.2306   1.2470
  1.2550   1.2657   1.2721   1.2840   1.2885   1.2937   1.3075   1.3190
  1.3214   1.3294   1.3399   1.3463   1.3507   1.3524   1.3636   1.3668
  1.3691   1.3822   1.3861   1.3901   1.3906   1.3985   1.4036   1.4076
  1.4128   1.4204   1.4221   1.4250   1.4313   1.4405   1.4480   1.4551
  1.4588   1.4643   1.4650   1.4747   1.4798   1.4809   1.4898   1.4943
  1.5011   1.5043   1.5144   1.5174   1.5283   1.5328   1.5357   1.5504
  1.5523   1.5716   1.6000   1.6144   1.6296   1.6358   1.6409   1.6542
  1.6649   1.6730   1.6763   1.6818   1.7029   1.7067   1.7179   1.7268
  1.7357   1.7474   1.7542   1.7545   1.7622   1.7703   1.7899   1.7995
  1.8099   1.8281   1.8352   1.8511   1.8578   1.8605   1.8631   1.8712
  1.8726   1.8773   1.8815   1.8864   1.8921   1.8976   1.9039   1.9133
  1.9214   1.9262   1.9299   1.9425   1.9477   1.9556   1.9621   1.9636
  1.9705   1.9734   1.9762   1.9870   1.9893   1.9914   1.9934   2.0033
  2.0103   2.0117   2.0184   2.0294   2.0400   2.0449   2.0485   2.0586
  2.0684   2.0713   2.0804   2.0847   2.0899   2.0900   2.1026   2.1123
  2.1167   2.1210   2.1253   2.1292   2.1370   2.1383   2.1454   2.1600
  2.1789   2.1831   2.1881   2.1965   2.2066   2.2208   2.2265   2.2370
  2.2444   2.2469   2.2539   2.2627   2.2709   2.2838   2.2940   2.3042
  2.3314   2.3428   2.3602   2.3718   2.3796   2.3898   2.4123   2.4289
  2.4439   2.4509   2.4556   2.4716   2.4799   2.4871   2.4912   2.5008
  2.5080   2.5219   2.5264   2.5424   2.5688   2.6235   2.6354   2.6452
  2.6692   2.6800   2.7154   2.7217   2.7451   2.7527   2.8282   2.8432
  2.8520   2.8646   2.8796   2.8848   2.8895   2.8992   2.9339   2.9377
  2.9434   2.9447   2.9597   2.9644   2.9908   2.9930   3.0017   3.0296
  3.0547   3.0621   3.0844   3.0910   3.1016   3.1197   3.1283   3.1450
  3.1553   3.1628   3.1831   3.1908   3.1969   3.2206   3.2440   3.2496
  3.2662   3.2845   3.2901   3.3228   3.3412   3.9585   4.0330   4.0477
  4.1168   4.2186   4.2676   4.3013   4.3094   4.3610   4.4320   4.4777
  4.5216   4.6049   4.6512   4.7205   4.7567   4.8046   4.8283   4.9285
  4.9930   5.2560   5.3194   5.3571   5.4671   5.5149   5.6092   5.7114
  5.8021   5.9776   6.0247   6.7245
 --------------------------------------------------------------
 
          Ground-State Mulliken Net Atomic Charges

     Atom                 Charge (a.u.)
  ----------------------------------------
      1 C                     0.808403
      2 F                    -0.242405
      3 F                    -0.242689
      4 C                     0.378405
      5 O                    -0.530190
      6 C                     0.809608
      7 C                     0.429142
      8 F                    -0.290340
      9 F                    -0.254239
     10 C                     0.808403
     11 F                    -0.245069
     12 F                    -0.281252
     13 F                    -0.242100
     14 F                    -0.252107
     15 F                    -0.268148
     16 F                    -0.255765
     17 O                    -0.542890
     18 C                     0.781548
     19 C                     0.800595
     20 C                     0.321820
     21 F                    -0.256904
     22 F                    -0.256748
     23 S                     1.113398
     24 F                    -0.289277
     25 F                    -0.289122
     26 F                    -0.244416
     27 F                    -0.244026
     28 F                    -0.264978
     29 O                    -0.579481
     30 O                    -0.586352
     31 O                    -0.592821
  ----------------------------------------
  Sum of atomic charges =    -1.000000

 -----------------------------------------------------------------
                    Cartesian Multipole Moments
 -----------------------------------------------------------------
    Charge (ESU x 10^10)
                -4.8032
    Dipole Moment (Debye)
         X      22.7854      Y      -1.7798      Z       0.2060
       Tot      22.8557
    Quadrupole Moments (Debye-Ang)
        XX    -308.9403     XY      11.0474     YY    -179.0987
        XZ      -2.3679     YZ       0.4560     ZZ    -178.4332
    Octopole Moments (Debye-Ang^2)
       XXX     836.1351    XXY     -70.1167    XYY      72.9000
       YYY     -19.4801    XXZ      17.2306    XYZ       0.0774
       YYZ       4.7439    XZZ      66.4866    YZZ      -2.6052
       ZZZ      -2.9328
    Hexadecapole Moments (Debye-Ang^3)
      XXXX  -17733.5294   XXXY     429.3782   XXYY   -2751.4590
      XYYY      95.8133   YYYY   -1786.3769   XXXZ    -112.1265
      XXYZ       9.8573   XYYZ     -27.8060   YYYZ       6.0241
      XXZZ   -2572.9331   XYZZ      16.8761   YYZZ    -458.0956
      XZZZ       6.7279   YZZZ       0.9353   ZZZZ    -978.4734
 -----------------------------------------------------------------
 Calculating analytic gradient of the SCF energy
 Gradient of SCF Energy
            1           2           3           4           5           6
    1  -0.0000902   0.0000221   0.0000742  -0.0001614   0.0000184  -0.0000401
    2   0.0000598   0.0000956  -0.0001512   0.0000956   0.0002049  -0.0000639
    3   0.0002853  -0.0002393  -0.0000609   0.0000682   0.0000681   0.0000040
            7           8           9          10          11          12
    1   0.0000061   0.0000555   0.0001420  -0.0003013   0.0000359   0.0000959
    2   0.0000620   0.0000238  -0.0002747  -0.0000493   0.0000742  -0.0000589
    3   0.0000764  -0.0000834  -0.0001522  -0.0001564   0.0002948   0.0000719
           13          14          15          16          17          18
    1   0.0000854   0.0000428   0.0002664   0.0000006  -0.0001762  -0.0001331
    2   0.0000050   0.0002046  -0.0002014   0.0000571  -0.0000576  -0.0000819
    3  -0.0001544   0.0000394   0.0000381  -0.0001215  -0.0000107   0.0001394
           19          20          21          22          23          24
    1  -0.0003301  -0.0000873   0.0001163   0.0001091   0.0001137   0.0000678
    2   0.0002497   0.0001279  -0.0000628  -0.0000793   0.0000360  -0.0001247
    3   0.0001197   0.0001333  -0.0000349  -0.0000672  -0.0000760  -0.0000107
           25          26          27          28          29          30
    1   0.0000494  -0.0001333   0.0000138   0.0001107  -0.0000085   0.0001033
    2   0.0000443  -0.0000218   0.0000024  -0.0000610   0.0000232  -0.0000792
    3  -0.0001109   0.0000133   0.0000064  -0.0001794   0.0000450  -0.0000285
           31
    1  -0.0000677
    2   0.0000015
    3   0.0000829
 Max gradient component =       3.301E-04
 RMS gradient           =       1.211E-04
 Gradient time:  CPU 89.75 s  wall 5.33 s

 *****************************************************
             Starting BFGS Algorithm
 *****************************************************
            LIBOPT3 RUN PARAMETERS

  Geometry Optimization Coordinates :
	Delocalized Natural Internal Coordinates

  Step Length Selection Method :
	Eigenvector Following Algorithm

  Step Length Limiter :
	Root-Mean-Square of Gradient

  Convergence Criteria :
	Max Gradient Component    	3.00000000e-04
	Max Displacement Component	1.20000000e-03
	Absolute Energy Difference	1.00000000e-06

  Initial Hessian :
	Approximate Hessian - Model Internal Coordinate

  Type of Verification :
	Verify with final updated Hessian
 *****************************************************

	OPTIMIZATION CYCLE:	1

 Scaling Magnitude of Eigenvalues
 	Minimum: -25.00000000	 Maximum: 25.00000000
 87 Hessian Eigenvalues to form next step
   0.00200000   0.00200000   0.00200000   0.00211425   0.00223721
   0.00317285   0.01272165   0.01648945   0.01711013   0.01942148
   0.04876930   0.05306750   0.05317953   0.06832530   0.06865155
   0.06919403   0.08020792   0.08081828   0.08203465   0.08393167
   0.08503962   0.08530526   0.08574908   0.08582890   0.08641446
   0.08778195   0.10035629   0.10087761   0.10835752   0.10943995
   0.13710245   0.17003456   0.17092693   0.18126670   0.18560913
   0.19557377   0.20240245   0.20979246   0.21063918   0.21223129
   0.21448870   0.25000000   0.25000000   0.25000000   0.25000000
   0.25000000   0.25000000   0.25000000   0.25000000   0.25000000
   0.25000000   0.25000000   0.25000000   0.25000000   0.25000000
   0.25000000   0.25000000   0.25000000   0.26368973   0.26555313
   0.27363668   0.27441738   0.28045652   0.42145292   0.46694556
   0.47505926   0.50498104   0.50698198   0.52395599   0.52537408
   0.52553115   0.54633032   0.54958166   0.55923795   0.56370733
   0.56454930   0.56475138   0.56820149   0.57227407   0.57664219
   0.57801009   0.58037149   0.58048382   0.58158656   0.83629422
   0.84094088   0.84471702

 Minimum Search taking a RFO step
 Searching for Lambda that minimizes along all modes
	Value of Lambda   -0.00014881
	Norm  of Stepsize  0.20816725
	RMS   of Stepsize  0.02231787

	Performing Iterative Coordinate Back-Transformation

	  Starting from Previous Position

	  iter:	0	rms: 7.0747601589e-02	maxdev: 1.9123568401e-01
	  iter:	1	rms: 1.5529213069e-03	maxdev: 5.7193754338e-03
	  iter:	2	rms: 6.5775084442e-07	maxdev: 3.8269481462e-06	 Success!

	Finished Iterative Coordinate Back-Transformation
 ----------------------------------------------------------------
             Standard Nuclear Orientation (Angstroms)
    I     Atom           X                Y                Z
 ----------------------------------------------------------------
    1      C       4.1346628638     1.4385024593     0.7319631440
    2      F       3.3986479949     2.5382465520     0.9173056020
    3      F       4.2942426568     0.8190303001     1.9070720118
    4      C       3.4211206562     0.5141393842    -0.2916558617
    5      O       2.1984151023     0.1587274173     0.2748949240
    6      C       1.0083415800     0.3264844394    -0.4213585660
    7      C      -0.1349720145    -0.3550451419     0.4022697743
    8      F       0.0007426398     0.0704741577     1.7001453918
    9      F       5.3426983525     1.8044282628     0.2713585385
   10      C       4.2076003940    -0.7828181787    -0.6294681587
   11      F       4.4761264881    -1.4706110856     0.4884023680
   12      F       3.3019076408     1.2266365771    -1.4472903361
   13      F       3.4846888924    -1.5531416839    -1.4469159142
   14      F       5.3672501009    -0.4842550091    -1.2380035062
   15      F       1.0725430482    -0.2247528172    -1.6539510360
   16      F       0.7489017477     1.6360399720    -0.5704412110
   17      O      -1.2837260848     0.1012976289    -0.1923701235
   18      C      -2.5877411097    -0.2662597991     0.2404710447
   19      C       0.0143309419    -1.9110380412     0.4410263838
   20      C      -3.5675724615     0.7648252502    -0.3643119199
   21      F      -2.8534964574    -1.5121190621    -0.1934373693
   22      F      -2.6356411938    -0.2682382566     1.5814012201
   23      S      -5.4059532951     0.4171549190    -0.1073783845
   24      F      -3.2390210943     1.9653406416     0.1890636923
   25      F      -3.2931387114     0.8302312079    -1.6966136313
   26      F      -0.8103398272    -2.4362379857     1.3518576034
   27      F      -0.2485812096    -2.4472391681    -0.7555923053
   28      F       1.2732959349    -2.2569022811     0.7852444105
   29      O      -6.0144987473     1.6693269065    -0.6033976553
   30      O      -5.6270333383    -0.7816471782    -0.9447330238
   31      O      -5.4799731719     0.1977644596     1.3545336257
 ----------------------------------------------------------------
 Molecular Point Group                 C1    NOp =  1
 Largest Abelian Subgroup              C1    NOp =  1
 Nuclear Repulsion Energy =        4363.97976460 hartrees
 There are      129 alpha and      129 beta electrons
 Applying Cartesian multipole field
    Component          Value
    ---------          -----
     (2,0,0)        1.00000E-12
     (0,2,0)        2.00000E-11
     (0,0,2)       -3.00000E-11
 Nucleus-field energy     = 1.6907794343e-08 hartrees
 Requested basis set is 6-31G(d)
 There are 125 shells and 469 basis functions
 A cutoff of  1.0D-12 yielded   4002 shell pairs
 There are     63715 function pairs
 Smallest overlap matrix eigenvalue = 1.32E-03
 Guess MOs from SCF MO coefficient file

 -----------------------------------------------------------------------
  General SCF calculation program by
  Eric Jon Sundstrom, Paul Horn, Yuezhi Mao, Dmitri Zuev, Alec White,
  David Stuck, Shaama M.S., Shane Yost, Joonho Lee, David Small,
  Daniel Levine, Susi Lehtola, Hugh Burton, Evgeny Epifanovsky,
  Bang C. Huynh
 -----------------------------------------------------------------------
 Exchange:     0.2000 Hartree-Fock + 0.0800 Slater + 0.7200 B88
 Correlation:  0.1900 VWN1RPA + 0.8100 LYP
 Using SG-1 standard quadrature grid
 A restricted SCF calculation will be
 performed using DIIS
 SCF converges when DIIS error is below 1.0e-08
 ---------------------------------------
  Cycle       Energy         DIIS error
 ---------------------------------------
    1   -2776.4169577954      5.51e-04  
    2   -2776.4311843876      6.82e-05  
    3   -2776.4312596617      6.53e-05  
    4   -2776.4313300286      1.57e-05  
    5   -2776.4313341674      4.50e-06  
    6   -2776.4313345315      1.56e-06  
    7   -2776.4313345757      4.57e-07  
    8   -2776.4313345795      1.65e-07  
    9   -2776.4313345800      3.48e-08  
   10   -2776.4313345801      1.24e-08  
   11   -2776.4313345801      4.99e-09  Convergence criterion met
 ---------------------------------------
 SCF time:   CPU 437.30s  wall 11.00s 
 SCF   energy = -2776.43133458
 Total energy = -2776.43133458
 
 --------------------------------------------------------------
 
                    Orbital Energies (a.u.)
 --------------------------------------------------------------
 
 Alpha MOs
 -- Occupied --
-88.9416 -24.6990 -24.6983 -24.6977 -24.6976 -24.6969 -24.6963 -24.6937
-24.6732 -24.6693 -24.6684 -24.6673 -24.6667 -24.6481 -24.6254 -24.6241
-24.5913 -24.5909 -19.1711 -19.1293 -18.9626 -18.9617 -18.9615 -10.4086
-10.4082 -10.3787 -10.3745 -10.3362 -10.3216 -10.3027 -10.2351  -7.9627
 -5.9278  -5.9269  -5.9269  -1.2838  -1.2764  -1.2505  -1.2345  -1.2109
 -1.1924  -1.1910  -1.1892  -1.1886  -1.1880  -1.1685  -1.1606  -1.1595
 -1.1587  -1.1337  -1.1166  -1.0759  -1.0571  -1.0120  -0.9456  -0.8122
 -0.8113  -0.7860  -0.7361  -0.6819  -0.6646  -0.6595  -0.6207  -0.5974
 -0.5811  -0.5766  -0.5681  -0.5615  -0.5535  -0.5476  -0.5432  -0.5361
 -0.5331  -0.5297  -0.5271  -0.5112  -0.5061  -0.4947  -0.4746  -0.4701
 -0.4507  -0.4471  -0.4337  -0.4300  -0.4244  -0.4237  -0.4214  -0.4181
 -0.4154  -0.4035  -0.4020  -0.3975  -0.3956  -0.3933  -0.3926  -0.3860
 -0.3815  -0.3790  -0.3753  -0.3719  -0.3706  -0.3684  -0.3661  -0.3649
 -0.3622  -0.3507  -0.3481  -0.3420  -0.3413  -0.3361  -0.3346  -0.3249
 -0.3189  -0.3146  -0.3019  -0.2976  -0.2838  -0.2826  -0.2815  -0.2775
 -0.2746  -0.2565  -0.2497  -0.1679  -0.1675  -0.1380  -0.1361  -0.1281
 -0.0904
 -- Virtual --
  0.0969   0.1129   0.1391   0.1570   0.1981   0.2046   0.2108   0.2125
  0.2285   0.2374   0.2408   0.2471   0.2543   0.2589   0.2670   0.2718
  0.2776   0.2888   0.2993   0.3031   0.3079   0.3167   0.3224   0.3271
  0.3395   0.3594   0.3819   0.3885   0.4133   0.4274   0.4774   0.4833
  0.4905   0.5029   0.5133   0.5242   0.5313   0.5436   0.5507   0.5574
  0.5596   0.5750   0.5805   0.5987   0.6130   0.6159   0.6571   0.6668
  0.6688   0.6808   0.6908   0.6955   0.7018   0.7271   0.7407   0.7665
  0.7710   0.7977   0.8232   0.8866   0.9074   0.9174   0.9361   0.9492
  0.9626   0.9706   0.9864   0.9915   1.0078   1.0231   1.0280   1.0486
  1.0637   1.0756   1.0809   1.0957   1.1030   1.1123   1.1211   1.1288
  1.1377   1.1425   1.1457   1.1571   1.1619   1.1649   1.1820   1.1857
  1.1932   1.1992   1.2028   1.2088   1.2163   1.2255   1.2311   1.2448
  1.2559   1.2657   1.2735   1.2845   1.2891   1.2950   1.3088   1.3195
  1.3215   1.3285   1.3400   1.3488   1.3502   1.3539   1.3620   1.3659
  1.3704   1.3818   1.3862   1.3906   1.3921   1.3967   1.4035   1.4081
  1.4144   1.4189   1.4229   1.4246   1.4309   1.4387   1.4475   1.4564
  1.4582   1.4616   1.4646   1.4719   1.4800   1.4832   1.4878   1.4949
  1.4999   1.5047   1.5112   1.5174   1.5271   1.5340   1.5341   1.5484
  1.5506   1.5720   1.6000   1.6158   1.6302   1.6358   1.6406   1.6535
  1.6649   1.6704   1.6751   1.6819   1.7033   1.7055   1.7193   1.7272
  1.7350   1.7469   1.7535   1.7545   1.7632   1.7699   1.7885   1.7993
  1.8079   1.8283   1.8361   1.8511   1.8583   1.8606   1.8630   1.8684
  1.8727   1.8769   1.8809   1.8867   1.8928   1.8969   1.9034   1.9146
  1.9184   1.9268   1.9296   1.9424   1.9476   1.9551   1.9612   1.9631
  1.9707   1.9727   1.9767   1.9868   1.9893   1.9915   1.9934   2.0040
  2.0108   2.0118   2.0185   2.0299   2.0393   2.0446   2.0487   2.0583
  2.0652   2.0712   2.0798   2.0855   2.0904   2.0908   2.1016   2.1123
  2.1171   2.1203   2.1234   2.1281   2.1365   2.1395   2.1450   2.1599
  2.1747   2.1817   2.1895   2.1961   2.2045   2.2206   2.2247   2.2354
  2.2434   2.2469   2.2537   2.2606   2.2643   2.2856   2.2919   2.3031
  2.3309   2.3424   2.3588   2.3711   2.3758   2.3894   2.4182   2.4281
  2.4423   2.4460   2.4586   2.4709   2.4815   2.4864   2.4926   2.4990
  2.5086   2.5219   2.5262   2.5422   2.5703   2.6216   2.6358   2.6466
  2.6673   2.6795   2.7183   2.7218   2.7488   2.7550   2.8267   2.8432
  2.8543   2.8640   2.8786   2.8843   2.8892   2.8974   2.9326   2.9385
  2.9425   2.9440   2.9616   2.9649   2.9897   2.9931   3.0007   3.0287
  3.0544   3.0633   3.0841   3.0907   3.1027   3.1211   3.1292   3.1433
  3.1562   3.1621   3.1850   3.1926   3.1971   3.2185   3.2470   3.2514
  3.2656   3.2898   3.2911   3.3210   3.3415   3.9580   4.0354   4.0490
  4.1216   4.2186   4.2652   4.2968   4.3009   4.3596   4.4418   4.4700
  4.5233   4.6015   4.6373   4.7212   4.7572   4.7999   4.8240   4.9158
  5.0075   5.2605   5.3079   5.3519   5.4876   5.5161   5.6570   5.7042
  5.8052   5.9734   6.0750   6.7375
 --------------------------------------------------------------
 
          Ground-State Mulliken Net Atomic Charges

     Atom                 Charge (a.u.)
  ----------------------------------------
      1 C                     0.807634
      2 F                    -0.242397
      3 F                    -0.243015
      4 C                     0.378401
      5 O                    -0.531161
      6 C                     0.811095
      7 C                     0.430240
      8 F                    -0.290318
      9 F                    -0.253828
     10 C                     0.808067
     11 F                    -0.244873
     12 F                    -0.281099
     13 F                    -0.241961
     14 F                    -0.251704
     15 F                    -0.268319
     16 F                    -0.256693
     17 O                    -0.543388
     18 C                     0.781482
     19 C                     0.799931
     20 C                     0.321454
     21 F                    -0.256992
     22 F                    -0.256123
     23 S                     1.113383
     24 F                    -0.289316
     25 F                    -0.289196
     26 F                    -0.244415
     27 F                    -0.243897
     28 F                    -0.264389
     29 O                    -0.579511
     30 O                    -0.586119
     31 O                    -0.592972
  ----------------------------------------
  Sum of atomic charges =    -1.000000

 -----------------------------------------------------------------
                    Cartesian Multipole Moments
 -----------------------------------------------------------------
    Charge (ESU x 10^10)
                -4.8032
    Dipole Moment (Debye)
         X      22.8255      Y      -1.7509      Z       0.3329
       Tot      22.8950
    Quadrupole Moments (Debye-Ang)
        XX    -309.0948     XY      10.7305     YY    -179.0699
        XZ      -3.1563     YZ       0.5286     ZZ    -178.4841
    Octopole Moments (Debye-Ang^2)
       XXX     838.9321    XXY     -68.2783    XYY      72.5589
       YYY     -18.4824    XXZ      21.7972    XYZ      -0.2229
       YYZ       5.3024    XZZ      66.7005    YZZ      -2.8777
       ZZZ      -1.6416
    Hexadecapole Moments (Debye-Ang^3)
      XXXX  -17755.8710   XXXY     420.0944   XXYY   -2747.8372
      XYYY      92.2459   YYYY   -1756.4464   XXXZ    -150.4504
      XXYZ      14.4150   XYYZ     -35.2165   YYYZ      10.0984
      XXZZ   -2581.0152   XYZZ      19.5165   YYZZ    -457.2482
      XZZZ      -7.6569   YZZZ       4.5780   ZZZZ    -999.5248
 -----------------------------------------------------------------
 Calculating analytic gradient of the SCF energy
 Gradient of SCF Energy
            1           2           3           4           5           6
    1   0.0002034  -0.0000684  -0.0001956  -0.0001323  -0.0003822  -0.0000032
    2  -0.0005257   0.0000617   0.0001715  -0.0007207   0.0000217   0.0001163
    3  -0.0001072   0.0002316  -0.0000662  -0.0000534   0.0003373   0.0001773
            7           8           9          10          11          12
    1  -0.0004014  -0.0002430   0.0001279   0.0000082   0.0000081  -0.0000769
    2  -0.0000498   0.0001293   0.0004773   0.0002745  -0.0000108   0.0000997
    3   0.0003991   0.0001016   0.0000448   0.0000091   0.0000945   0.0001078
           13          14          15          16          17          18
    1   0.0000645   0.0001480   0.0001287   0.0003876   0.0000880  -0.0002158
    2  -0.0000383  -0.0003498   0.0000594  -0.0002881   0.0001355  -0.0001405
    3   0.0000318  -0.0002975  -0.0004986  -0.0002428   0.0000143  -0.0001193
           19          20          21          22          23          24
    1  -0.0001061  -0.0000367  -0.0000381  -0.0002804   0.0001158   0.0000253
    2  -0.0001844   0.0000426   0.0000048   0.0001778   0.0000887   0.0000198
    3  -0.0003467   0.0000635   0.0000818   0.0001282  -0.0000932   0.0000218
           25          26          27          28          29          30
    1  -0.0000888   0.0002421   0.0000094   0.0007684  -0.0000669  -0.0000500
    2   0.0000026  -0.0000629  -0.0001362   0.0006847   0.0000093  -0.0000332
    3   0.0000476  -0.0001792   0.0000765   0.0000205   0.0000045  -0.0000375
           31
    1   0.0000605
    2  -0.0000368
    3   0.0000482
 Max gradient component =       7.684E-04
 RMS gradient           =       2.207E-04
 Gradient time:  CPU 90.25 s  wall 5.15 s

     Step 1	:
        Energy is -2776.4313345801
                            Maximum         Tolerance       Converged?
         Gradient           2.82914466e-03	3.00000000e-04	false
         Displacement       9.05798372e-02	1.20000000e-03	false
         Energy change      1.96923547e-05	1.00000000e-06	false


	OPTIMIZATION CYCLE:	2

 Scaling Magnitude of Eigenvalues
 	Minimum: -25.00000000	 Maximum: 25.00000000
 87 Hessian Eigenvalues to form next step
   0.00173407   0.00200000   0.00209351   0.00218493   0.00312686
   0.00329629   0.01180295   0.01593873   0.01684198   0.01993758
   0.04878330   0.05299821   0.05327953   0.06821351   0.06849152
   0.07136040   0.07925499   0.08081880   0.08215530   0.08367336
   0.08481630   0.08550134   0.08574419   0.08637121   0.08741805
   0.08872757   0.10056034   0.10092609   0.10834682   0.10943854
   0.13705539   0.16947082   0.17116100   0.18145387   0.18542452
   0.19541079   0.20222394   0.20644727   0.21067914   0.21223834
   0.22645211   0.24324587   0.25000000   0.25000000   0.25000000
   0.25000000   0.25000000   0.25000000   0.25000000   0.25000000
   0.25000000   0.25000000   0.25000000   0.25000000   0.25000000
   0.25000000   0.25000000   0.26359893   0.26539468   0.27284328
   0.27423955   0.28036648   0.33994479   0.42530916   0.46693978
   0.47505642   0.50505672   0.50903647   0.52391008   0.52539033
   0.52563377   0.54688629   0.55116740   0.55925079   0.56365137
   0.56468426   0.56571748   0.56855371   0.57207953   0.57683692
   0.57801052   0.58044573   0.58119656   0.58167931   0.83624462
   0.84091563   0.84472060

 Minimum Search taking a RFO step
 Searching for Lambda that minimizes along all modes
	Value of Lambda   -0.00011512
	Norm  of Stepsize  0.09174589
	RMS   of Stepsize  0.00983619

	Performing Iterative Coordinate Back-Transformation

	  Starting from Previous Position

	  iter:	0	rms: 2.7038005634e-02	maxdev: 8.3773742501e-02
	  iter:	1	rms: 2.4816196137e-04	maxdev: 1.0321618401e-03
	  iter:	2	rms: 2.7688001899e-08	maxdev: 1.4721203793e-07	 Success!

	Finished Iterative Coordinate Back-Transformation
 ----------------------------------------------------------------
             Standard Nuclear Orientation (Angstroms)
    I     Atom           X                Y                Z
 ----------------------------------------------------------------
    1      C       4.1223880568     1.4519519091     0.7295881995
    2      F       3.3748863147     2.5443889015     0.9115364501
    3      F       4.2867904878     0.8362812405     1.9061149616
    4      C       3.4204992526     0.5185605853    -0.2938210707
    5      O       2.2026398535     0.1474238877     0.2732421795
    6      C       1.0096507341     0.3072646531    -0.4199328059
    7      C      -0.1324481381    -0.3750749418     0.4044216572
    8      F       0.0093037408     0.0432997666     1.7039380557
    9      F       5.3273533087     1.8287635528     0.2702317702
   10      C       4.2228112371    -0.7684335679    -0.6323982513
   11      F       4.4917565134    -1.4593453505     0.4832793080
   12      F       3.2919207768     1.2294783659    -1.4495024390
   13      F       3.5129857363    -1.5421960346    -1.4580164873
   14      F       5.3828510650    -0.4536661870    -1.2316601629
   15      F       1.0721093392    -0.2436971800    -1.6524318202
   16      F       0.7432732569     1.6156673435    -0.5682078810
   17      O      -1.2783775080     0.0927102578    -0.1864203018
   18      C      -2.5844139037    -0.2656917996     0.2469881175
   19      C      -0.0016337005    -1.9333128480     0.4368162130
   20      C      -3.5581319549     0.7677250826    -0.3637627202
   21      F      -2.8569334928    -1.5116375857    -0.1824258264
   22      F      -2.6325206762    -0.2625032205     1.5878630030
   23      S      -5.3990013978     0.4346352970    -0.1033923514
   24      F      -3.2214648171     1.9701842726     0.1804984260
   25      F      -3.2840893684     0.8216554331    -1.6966427921
   26      F      -0.8531067939    -2.4521204247     1.3265410284
   27      F      -0.2470000026    -2.4584736051    -0.7684004239
   28      F       1.2434766686    -2.3010879914     0.8064364224
   29      O      -5.9989765438     1.6840832511    -0.6163883137
   30      O      -5.6274248582    -0.7734788902    -0.9251810691
   31      O      -5.4753448677     0.2349906740     1.3611796570
 ----------------------------------------------------------------
 Molecular Point Group                 C1    NOp =  1
 Largest Abelian Subgroup              C1    NOp =  1
 Nuclear Repulsion Energy =        4362.43436144 hartrees
 There are      129 alpha and      129 beta electrons
 Applying Cartesian multipole field
    Component          Value
    ---------          -----
     (2,0,0)        1.00000E-12
     (0,2,0)        2.00000E-11
     (0,0,2)       -3.00000E-11
 Nucleus-field energy     = 1.7197531713e-08 hartrees
 Requested basis set is 6-31G(d)
 There are 125 shells and 469 basis functions
 A cutoff of  1.0D-12 yielded   3997 shell pairs
 There are     63659 function pairs
 Smallest overlap matrix eigenvalue = 1.32E-03
 Guess MOs from SCF MO coefficient file

 -----------------------------------------------------------------------
  General SCF calculation program by
  Eric Jon Sundstrom, Paul Horn, Yuezhi Mao, Dmitri Zuev, Alec White,
  David Stuck, Shaama M.S., Shane Yost, Joonho Lee, David Small,
  Daniel Levine, Susi Lehtola, Hugh Burton, Evgeny Epifanovsky,
  Bang C. Huynh
 -----------------------------------------------------------------------
 Exchange:     0.2000 Hartree-Fock + 0.0800 Slater + 0.7200 B88
 Correlation:  0.1900 VWN1RPA + 0.8100 LYP
 Using SG-1 standard quadrature grid
 A restricted SCF calculation will be
 performed using DIIS
 SCF converges when DIIS error is below 1.0e-08
 ---------------------------------------
  Cycle       Energy         DIIS error
 ---------------------------------------
    1   -2776.4297096167      1.87e-04  
    2   -2776.4313442503      2.33e-05  
    3   -2776.4313491313      2.60e-05  
    4   -2776.4313610866      6.58e-06  
    5   -2776.4313617365      3.43e-06  
    6   -2776.4313619643      4.71e-07  
    7   -2776.4313619679      2.17e-07  
    8   -2776.4313619688      4.93e-08  
    9   -2776.4313619689      1.14e-08  
   10   -2776.4313619689      4.54e-09  Convergence criterion met
 ---------------------------------------
 SCF time:   CPU 403.46s  wall 10.00s 
 SCF   energy = -2776.43136197
 Total energy = -2776.43136197
 
 --------------------------------------------------------------
 
                    Orbital Energies (a.u.)
 --------------------------------------------------------------
 
 Alpha MOs
 -- Occupied --
-88.9416 -24.6990 -24.6985 -24.6979 -24.6977 -24.6972 -24.6963 -24.6938
-24.6732 -24.6693 -24.6680 -24.6672 -24.6663 -24.6481 -24.6252 -24.6238
-24.5912 -24.5908 -19.1715 -19.1292 -18.9625 -18.9617 -18.9614 -10.4086
-10.4085 -10.3787 -10.3745 -10.3363 -10.3214 -10.3026 -10.2350  -7.9627
 -5.9278  -5.9269  -5.9268  -1.2840  -1.2766  -1.2504  -1.2345  -1.2110
 -1.1926  -1.1911  -1.1894  -1.1887  -1.1879  -1.1685  -1.1604  -1.1592
 -1.1586  -1.1336  -1.1164  -1.0758  -1.0573  -1.0121  -0.9456  -0.8122
 -0.8113  -0.7860  -0.7360  -0.6821  -0.6646  -0.6595  -0.6208  -0.5974
 -0.5812  -0.5765  -0.5683  -0.5615  -0.5536  -0.5478  -0.5434  -0.5361
 -0.5330  -0.5295  -0.5269  -0.5111  -0.5061  -0.4947  -0.4744  -0.4700
 -0.4506  -0.4471  -0.4338  -0.4302  -0.4244  -0.4238  -0.4213  -0.4181
 -0.4154  -0.4032  -0.4020  -0.3976  -0.3958  -0.3930  -0.3926  -0.3861
 -0.3817  -0.3791  -0.3753  -0.3720  -0.3705  -0.3683  -0.3660  -0.3649
 -0.3622  -0.3508  -0.3482  -0.3419  -0.3416  -0.3360  -0.3342  -0.3248
 -0.3188  -0.3143  -0.3018  -0.2975  -0.2839  -0.2825  -0.2816  -0.2776
 -0.2745  -0.2565  -0.2496  -0.1678  -0.1675  -0.1379  -0.1360  -0.1280
 -0.0904
 -- Virtual --
  0.0968   0.1129   0.1392   0.1569   0.1984   0.2046   0.2109   0.2125
  0.2287   0.2373   0.2407   0.2470   0.2542   0.2589   0.2670   0.2720
  0.2778   0.2885   0.2999   0.3031   0.3080   0.3166   0.3227   0.3271
  0.3396   0.3594   0.3818   0.3884   0.4134   0.4277   0.4775   0.4831
  0.4902   0.5028   0.5136   0.5243   0.5315   0.5435   0.5507   0.5574
  0.5597   0.5752   0.5804   0.5989   0.6135   0.6157   0.6569   0.6664
  0.6692   0.6808   0.6907   0.6955   0.7024   0.7272   0.7405   0.7673
  0.7707   0.7970   0.8243   0.8870   0.9077   0.9172   0.9363   0.9490
  0.9626   0.9710   0.9865   0.9904   1.0081   1.0224   1.0290   1.0487
  1.0631   1.0756   1.0812   1.0956   1.1031   1.1122   1.1204   1.1284
  1.1378   1.1423   1.1452   1.1581   1.1597   1.1651   1.1814   1.1866
  1.1934   1.1991   1.2027   1.2091   1.2163   1.2258   1.2305   1.2452
  1.2561   1.2653   1.2741   1.2849   1.2882   1.2948   1.3091   1.3190
  1.3211   1.3289   1.3398   1.3483   1.3495   1.3544   1.3623   1.3657
  1.3710   1.3819   1.3860   1.3902   1.3934   1.3965   1.4033   1.4076
  1.4135   1.4170   1.4220   1.4247   1.4303   1.4388   1.4462   1.4568
  1.4583   1.4617   1.4648   1.4727   1.4795   1.4839   1.4873   1.4949
  1.5008   1.5038   1.5121   1.5181   1.5269   1.5330   1.5368   1.5486
  1.5519   1.5693   1.5999   1.6152   1.6293   1.6346   1.6413   1.6535
  1.6649   1.6711   1.6747   1.6821   1.7017   1.7060   1.7186   1.7283
  1.7347   1.7468   1.7537   1.7543   1.7623   1.7683   1.7879   1.7984
  1.8074   1.8282   1.8356   1.8515   1.8583   1.8598   1.8624   1.8689
  1.8728   1.8766   1.8805   1.8875   1.8933   1.8964   1.9031   1.9151
  1.9200   1.9250   1.9295   1.9424   1.9477   1.9546   1.9613   1.9631
  1.9708   1.9728   1.9767   1.9864   1.9891   1.9914   1.9934   2.0047
  2.0110   2.0114   2.0186   2.0310   2.0399   2.0447   2.0482   2.0588
  2.0639   2.0707   2.0800   2.0850   2.0902   2.0908   2.1015   2.1129
  2.1174   2.1207   2.1227   2.1283   2.1366   2.1395   2.1449   2.1576
  2.1718   2.1821   2.1896   2.1973   2.2048   2.2207   2.2246   2.2344
  2.2436   2.2470   2.2526   2.2592   2.2629   2.2862   2.2915   2.3037
  2.3309   2.3417   2.3584   2.3714   2.3742   2.3890   2.4185   2.4270
  2.4416   2.4464   2.4599   2.4709   2.4820   2.4864   2.4933   2.4973
  2.5075   2.5218   2.5263   2.5411   2.5699   2.6224   2.6383   2.6480
  2.6672   2.6801   2.7187   2.7222   2.7503   2.7547   2.8272   2.8427
  2.8548   2.8644   2.8783   2.8848   2.8894   2.8976   2.9323   2.9380
  2.9427   2.9442   2.9619   2.9644   2.9903   2.9930   3.0014   3.0294
  3.0542   3.0633   3.0845   3.0910   3.1028   3.1205   3.1289   3.1450
  3.1563   3.1622   3.1834   3.1924   3.1973   3.2188   3.2476   3.2514
  3.2660   3.2895   3.2916   3.3196   3.3403   3.9582   4.0352   4.0482
  4.1204   4.2179   4.2638   4.2964   4.3016   4.3592   4.4399   4.4655
  4.5208   4.6023   4.6403   4.7220   4.7558   4.8003   4.8253   4.9145
  5.0067   5.2572   5.3050   5.3511   5.4852   5.5202   5.6516   5.7106
  5.7996   5.9755   6.0942   6.7445
 --------------------------------------------------------------
 
          Ground-State Mulliken Net Atomic Charges

     Atom                 Charge (a.u.)
  ----------------------------------------
      1 C                     0.807836
      2 F                    -0.242144
      3 F                    -0.243072
      4 C                     0.378199
      5 O                    -0.531648
      6 C                     0.811559
      7 C                     0.429956
      8 F                    -0.290463
      9 F                    -0.253751
     10 C                     0.807848
     11 F                    -0.244551
     12 F                    -0.280924
     13 F                    -0.241908
     14 F                    -0.251610
     15 F                    -0.267976
     16 F                    -0.256997
     17 O                    -0.543189
     18 C                     0.782401
     19 C                     0.799218
     20 C                     0.321566
     21 F                    -0.257526
     22 F                    -0.256532
     23 S                     1.113531
     24 F                    -0.289370
     25 F                    -0.289264
     26 F                    -0.244116
     27 F                    -0.244097
     28 F                    -0.264323
     29 O                    -0.579595
     30 O                    -0.586152
     31 O                    -0.592908
  ----------------------------------------
  Sum of atomic charges =    -1.000000

 -----------------------------------------------------------------
                    Cartesian Multipole Moments
 -----------------------------------------------------------------
    Charge (ESU x 10^10)
                -4.8032
    Dipole Moment (Debye)
         X      22.8180      Y      -1.8203      Z       0.3138
       Tot      22.8926
    Quadrupole Moments (Debye-Ang)
        XX    -308.7026     XY      11.1213     YY    -179.1719
        XZ      -3.0848     YZ       0.5538     ZZ    -178.4811
    Octopole Moments (Debye-Ang^2)
       XXX     835.9912    XXY     -70.4254    XYY      72.8422
       YYY     -19.0656    XXZ      21.2026    XYZ      -0.2204
       YYZ       5.2765    XZZ      66.5623    YZZ      -3.2707
       ZZZ      -1.9487
    Hexadecapole Moments (Debye-Ang^3)
      XXXX  -17711.7742   XXXY     429.0907   XXYY   -2749.0216
      XYYY      95.0378   YYYY   -1773.5783   XXXZ    -141.9517
      XXYZ      14.9610   XYYZ     -33.4300   YYYZ      11.0361
      XXZZ   -2577.1850   XYZZ      21.5432   YYZZ    -460.0653
      XZZZ      -0.7489   YZZZ       4.8787   ZZZZ    -999.5730
 -----------------------------------------------------------------
 Calculating analytic gradient of the SCF energy
 Gradient of SCF Energy
            1           2           3           4           5           6
    1   0.0001065  -0.0000515  -0.0001003  -0.0001385   0.0003444   0.0001355
    2  -0.0004522   0.0000699   0.0002688  -0.0006955   0.0015423  -0.0001947
    3  -0.0000530   0.0002012   0.0000125  -0.0000731   0.0002425   0.0001624
            7           8           9          10          11          12
    1  -0.0004834  -0.0001504  -0.0000199   0.0000361   0.0000161  -0.0001004
    2   0.0001889   0.0001828   0.0002656   0.0000914  -0.0001232   0.0002298
    3   0.0001365  -0.0000450   0.0000478  -0.0001032  -0.0000656  -0.0000183
           13          14          15          16          17          18
    1   0.0000770   0.0000567  -0.0003512   0.0000596   0.0006077  -0.0001944
    2  -0.0001102  -0.0001939   0.0001575  -0.0004710   0.0001280   0.0000290
    3   0.0002306  -0.0001180  -0.0004037  -0.0001118  -0.0000331   0.0000090
           19          20          21          22          23          24
    1  -0.0000093   0.0000176   0.0003172  -0.0000899   0.0000343   0.0000156
    2  -0.0001611  -0.0000023  -0.0000758   0.0000281   0.0000322   0.0000545
    3  -0.0005414  -0.0000725   0.0003321   0.0000954  -0.0000351   0.0000095
           25          26          27          28          29          30
    1  -0.0000846  -0.0001452   0.0000559   0.0001106  -0.0000373  -0.0000739
    2   0.0000134   0.0000335  -0.0000815  -0.0007125  -0.0000075  -0.0000164
    3   0.0001074  -0.0004649   0.0002244   0.0003671  -0.0000270  -0.0000414
           31
    1   0.0000393
    2  -0.0000178
    3   0.0000288
 Max gradient component =       1.542E-03
 RMS gradient           =       2.678E-04
 Gradient time:  CPU 88.19 s  wall 5.09 s

     Step 2	:
        Energy is -2776.4313619689
                            Maximum         Tolerance       Converged?
         Gradient           1.52001055e-03	3.00000000e-04	false
         Displacement       3.27581129e-02	1.20000000e-03	false
         Energy change      2.73887927e-05	1.00000000e-06	false


	OPTIMIZATION CYCLE:	3

 Scaling Magnitude of Eigenvalues
 	Minimum: -25.00000000	 Maximum: 25.00000000
 87 Hessian Eigenvalues to form next step
   0.00183023   0.00201252   0.00212308   0.00228410   0.00315294
   0.00435127   0.01309099   0.01477231   0.01678955   0.01949477
   0.04872789   0.05318002   0.05369575   0.06829567   0.06920131
   0.07221325   0.08077063   0.08097586   0.08189286   0.08476390
   0.08489842   0.08544039   0.08583097   0.08640745   0.08775593
   0.09351704   0.10025672   0.10077847   0.10832798   0.10943891
   0.13708430   0.16627277   0.17129145   0.17886683   0.18558578
   0.19381799   0.19864846   0.20254690   0.20988767   0.21140619
   0.21735499   0.24255755   0.25000000   0.25000000   0.25000000
   0.25000000   0.25000000   0.25000000   0.25000000   0.25000000
   0.25000000   0.25000000   0.25000000   0.25000000   0.25000000
   0.25000000   0.25003963   0.26322930   0.26455235   0.27358486
   0.27441379   0.28045545   0.38455893   0.42179464   0.46787825
   0.47592096   0.50499552   0.51883957   0.52465375   0.52536997
   0.52568329   0.54510789   0.54865263   0.55930686   0.56325105
   0.56453852   0.56534551   0.56818391   0.57207980   0.57658220
   0.57842183   0.58028027   0.58045946   0.58171313   0.83623041
   0.84090200   0.84471181

 Minimum Search taking a RFO step
 Searching for Lambda that minimizes along all modes
	Value of Lambda   -0.00014576
	Norm  of Stepsize  0.16751606
	RMS   of Stepsize  0.01795961

	Performing Iterative Coordinate Back-Transformation

	  Starting from Previous Position

	  iter:	0	rms: 3.0251147432e-02	maxdev: 1.2549284186e-01
	  iter:	1	rms: 4.4899170113e-04	maxdev: 1.5411093523e-03
	  iter:	2	rms: 1.0533032570e-07	maxdev: 7.5299762309e-07	 Success!

	Finished Iterative Coordinate Back-Transformation
 ----------------------------------------------------------------
             Standard Nuclear Orientation (Angstroms)
    I     Atom           X                Y                Z
 ----------------------------------------------------------------
    1      C       4.1237633639     1.4461151673     0.7300263886
    2      F       3.3899819092     2.5490643334     0.9032298411
    3      F       4.2711442720     0.8285673292     1.9079934705
    4      C       3.4194471487     0.5208395398    -0.2984551332
    5      O       2.2055721122     0.1379583653     0.2699563903
    6      C       1.0086152508     0.3030832942    -0.4148135668
    7      C      -0.1321670564    -0.3733206436     0.4155561032
    8      F       0.0116733117     0.0555076264     1.7113726658
    9      F       5.3377168248     1.8035235581     0.2793945266
   10      C       4.2255610272    -0.7588692720    -0.6523089971
   11      F       4.4719975679    -1.4772612775     0.4510474788
   12      F       3.2848774975     1.2411805625    -1.4475372859
   13      F       3.5312189390    -1.5099792319    -1.5114505761
   14      F       5.3972635335    -0.4289056252    -1.2195215927
   15      F       1.0618377893    -0.2479854662    -1.6472311805
   16      F       0.7453858465     1.6130256312    -0.5589233144
   17      O      -1.2770349223     0.0905698070    -0.1807239380
   18      C      -2.5844832156    -0.2719203610     0.2432650598
   19      C      -0.0088155661    -1.9309410913     0.4648268593
   20      C      -3.5543818326     0.7674994788    -0.3630056540
   21      F      -2.8563358481    -1.5126893475    -0.2014826548
   22      F      -2.6378073558    -0.2829089052     1.5837795384
   23      S      -5.3970794636     0.4325393973    -0.1175639170
   24      F      -3.2209629539     1.9648849192     0.1941830719
   25      F      -3.2715778531     0.8334217899    -1.6936152412
   26      F      -0.8308779717    -2.4315711398     1.3922028202
   27      F      -0.3001099882    -2.4697728200    -0.7241325307
   28      F       1.2457894099    -2.3020950805     0.7948348676
   29      O      -5.9933667450     1.6814601940    -0.6360584032
   30      O      -5.6170038982    -0.7759378556    -0.9410591703
   31      O      -5.4860128152     0.2332619708     1.3463048060
 ----------------------------------------------------------------
 Molecular Point Group                 C1    NOp =  1
 Largest Abelian Subgroup              C1    NOp =  1
 Nuclear Repulsion Energy =        4362.23898917 hartrees
 There are      129 alpha and      129 beta electrons
 Applying Cartesian multipole field
    Component          Value
    ---------          -----
     (2,0,0)        1.00000E-12
     (0,2,0)        2.00000E-11
     (0,0,2)       -3.00000E-11
 Nucleus-field energy     = 1.6859573163e-08 hartrees
 Requested basis set is 6-31G(d)
 There are 125 shells and 469 basis functions
 A cutoff of  1.0D-12 yielded   3992 shell pairs
 There are     63573 function pairs
 Smallest overlap matrix eigenvalue = 1.31E-03
 Guess MOs from SCF MO coefficient file

 -----------------------------------------------------------------------
  General SCF calculation program by
  Eric Jon Sundstrom, Paul Horn, Yuezhi Mao, Dmitri Zuev, Alec White,
  David Stuck, Shaama M.S., Shane Yost, Joonho Lee, David Small,
  Daniel Levine, Susi Lehtola, Hugh Burton, Evgeny Epifanovsky,
  Bang C. Huynh
 -----------------------------------------------------------------------
 Exchange:     0.2000 Hartree-Fock + 0.0800 Slater + 0.7200 B88
 Correlation:  0.1900 VWN1RPA + 0.8100 LYP
 Using SG-1 standard quadrature grid
 A restricted SCF calculation will be
 performed using DIIS
 SCF converges when DIIS error is below 1.0e-08
 ---------------------------------------
  Cycle       Energy         DIIS error
 ---------------------------------------
    1   -2776.4278831134      2.74e-04  
    2   -2776.4313363103      3.23e-05  
    3   -2776.4313544841      2.97e-05  
    4   -2776.4313687832      1.08e-05  
    5   -2776.4313707629      4.47e-06  
    6   -2776.4313711482      4.98e-07  
    7   -2776.4313711521      2.31e-07  
    8   -2776.4313711531      4.17e-08  
    9   -2776.4313711531      1.23e-08  
   10   -2776.4313711531      5.55e-09  Convergence criterion met
 ---------------------------------------
 SCF time:   CPU 414.19s  wall 10.00s 
 SCF   energy = -2776.43137115
 Total energy = -2776.43137115
 
 --------------------------------------------------------------
 
                    Orbital Energies (a.u.)
 --------------------------------------------------------------
 
 Alpha MOs
 -- Occupied --
-88.9416 -24.6988 -24.6984 -24.6979 -24.6977 -24.6973 -24.6967 -24.6939
-24.6733 -24.6695 -24.6680 -24.6669 -24.6664 -24.6480 -24.6256 -24.6237
-24.5911 -24.5908 -19.1714 -19.1290 -18.9624 -18.9617 -18.9614 -10.4086
-10.4083 -10.3786 -10.3745 -10.3360 -10.3214 -10.3025 -10.2349  -7.9627
 -5.9277  -5.9268  -5.9268  -1.2840  -1.2765  -1.2504  -1.2345  -1.2109
 -1.1928  -1.1911  -1.1896  -1.1886  -1.1879  -1.1686  -1.1605  -1.1592
 -1.1585  -1.1336  -1.1166  -1.0758  -1.0571  -1.0121  -0.9456  -0.8121
 -0.8113  -0.7860  -0.7361  -0.6820  -0.6646  -0.6596  -0.6209  -0.5973
 -0.5810  -0.5765  -0.5684  -0.5614  -0.5535  -0.5478  -0.5434  -0.5362
 -0.5331  -0.5296  -0.5272  -0.5113  -0.5060  -0.4945  -0.4745  -0.4700
 -0.4505  -0.4469  -0.4339  -0.4303  -0.4243  -0.4238  -0.4212  -0.4179
 -0.4152  -0.4033  -0.4019  -0.3976  -0.3963  -0.3933  -0.3923  -0.3857
 -0.3818  -0.3789  -0.3750  -0.3722  -0.3705  -0.3683  -0.3661  -0.3650
 -0.3621  -0.3506  -0.3482  -0.3421  -0.3416  -0.3358  -0.3343  -0.3249
 -0.3189  -0.3143  -0.3018  -0.2975  -0.2836  -0.2825  -0.2815  -0.2774
 -0.2745  -0.2568  -0.2496  -0.1678  -0.1675  -0.1379  -0.1360  -0.1280
 -0.0904
 -- Virtual --
  0.0970   0.1134   0.1388   0.1576   0.1982   0.2046   0.2116   0.2129
  0.2282   0.2373   0.2412   0.2466   0.2540   0.2589   0.2669   0.2719
  0.2778   0.2885   0.3000   0.3032   0.3084   0.3167   0.3232   0.3277
  0.3402   0.3592   0.3820   0.3886   0.4133   0.4281   0.4775   0.4833
  0.4905   0.5029   0.5135   0.5243   0.5317   0.5437   0.5500   0.5576
  0.5595   0.5754   0.5807   0.5997   0.6118   0.6160   0.6568   0.6658
  0.6695   0.6810   0.6910   0.6958   0.7022   0.7269   0.7410   0.7659
  0.7725   0.7987   0.8240   0.8872   0.9084   0.9180   0.9366   0.9482
  0.9625   0.9710   0.9844   0.9909   1.0083   1.0220   1.0284   1.0496
  1.0620   1.0768   1.0803   1.0958   1.1029   1.1122   1.1201   1.1288
  1.1387   1.1423   1.1450   1.1562   1.1613   1.1647   1.1824   1.1854
  1.1937   1.1988   1.2025   1.2086   1.2173   1.2245   1.2318   1.2458
  1.2558   1.2661   1.2739   1.2834   1.2905   1.2959   1.3104   1.3184
  1.3210   1.3295   1.3402   1.3477   1.3501   1.3534   1.3632   1.3662
  1.3690   1.3821   1.3860   1.3900   1.3928   1.3973   1.4036   1.4060
  1.4116   1.4185   1.4238   1.4249   1.4310   1.4402   1.4476   1.4553
  1.4580   1.4629   1.4644   1.4747   1.4789   1.4815   1.4899   1.4936
  1.4981   1.5028   1.5110   1.5176   1.5284   1.5323   1.5338   1.5477
  1.5522   1.5707   1.6001   1.6135   1.6281   1.6343   1.6408   1.6541
  1.6650   1.6737   1.6774   1.6831   1.7023   1.7062   1.7196   1.7273
  1.7350   1.7473   1.7539   1.7544   1.7627   1.7705   1.7861   1.7990
  1.8070   1.8275   1.8348   1.8517   1.8582   1.8604   1.8614   1.8721
  1.8731   1.8768   1.8802   1.8863   1.8920   1.8972   1.9014   1.9135
  1.9186   1.9254   1.9298   1.9422   1.9476   1.9547   1.9612   1.9629
  1.9707   1.9721   1.9767   1.9868   1.9885   1.9914   1.9935   2.0036
  2.0101   2.0112   2.0186   2.0295   2.0402   2.0447   2.0473   2.0586
  2.0649   2.0710   2.0800   2.0845   2.0897   2.0900   2.1010   2.1130
  2.1173   2.1215   2.1232   2.1281   2.1368   2.1397   2.1450   2.1564
  2.1739   2.1816   2.1903   2.1970   2.2056   2.2217   2.2256   2.2353
  2.2450   2.2473   2.2523   2.2590   2.2646   2.2866   2.2929   2.3044
  2.3305   2.3419   2.3594   2.3723   2.3771   2.3883   2.4186   2.4286
  2.4434   2.4478   2.4574   2.4718   2.4836   2.4872   2.4930   2.4963
  2.5076   2.5219   2.5263   2.5424   2.5728   2.6230   2.6367   2.6458
  2.6689   2.6806   2.7202   2.7217   2.7493   2.7561   2.8275   2.8424
  2.8549   2.8651   2.8789   2.8857   2.8899   2.8979   2.9330   2.9381
  2.9433   2.9446   2.9634   2.9641   2.9906   2.9929   3.0014   3.0289
  3.0550   3.0634   3.0850   3.0914   3.1015   3.1193   3.1284   3.1463
  3.1556   3.1628   3.1822   3.1926   3.1975   3.2188   3.2472   3.2521
  3.2678   3.2883   3.2926   3.3185   3.3420   3.9588   4.0347   4.0486
  4.1211   4.2178   4.2648   4.2948   4.3098   4.3648   4.4436   4.4688
  4.5218   4.6004   4.6350   4.7222   4.7571   4.8034   4.8254   4.9091
  4.9926   5.2595   5.3178   5.3567   5.4881   5.5141   5.6563   5.7147
  5.7992   5.9919   6.0522   6.7461
 --------------------------------------------------------------
 
          Ground-State Mulliken Net Atomic Charges

     Atom                 Charge (a.u.)
  ----------------------------------------
      1 C                     0.808468
      2 F                    -0.241918
      3 F                    -0.243076
      4 C                     0.377697
      5 O                    -0.531770
      6 C                     0.811754
      7 C                     0.429994
      8 F                    -0.290525
      9 F                    -0.253904
     10 C                     0.808189
     11 F                    -0.244401
     12 F                    -0.280942
     13 F                    -0.242076
     14 F                    -0.251927
     15 F                    -0.267419
     16 F                    -0.257371
     17 O                    -0.543482
     18 C                     0.782057
     19 C                     0.799583
     20 C                     0.321616
     21 F                    -0.257321
     22 F                    -0.256485
     23 S                     1.113811
     24 F                    -0.289497
     25 F                    -0.289339
     26 F                    -0.244831
     27 F                    -0.243960
     28 F                    -0.264054
     29 O                    -0.579720
     30 O                    -0.586347
     31 O                    -0.592802
  ----------------------------------------
  Sum of atomic charges =    -1.000000

 -----------------------------------------------------------------
                    Cartesian Multipole Moments
 -----------------------------------------------------------------
    Charge (ESU x 10^10)
                -4.8032
    Dipole Moment (Debye)
         X      22.8134      Y      -1.8127      Z       0.3778
       Tot      22.8884
    Quadrupole Moments (Debye-Ang)
        XX    -308.6300     XY      11.0814     YY    -179.1397
        XZ      -3.4112     YZ       0.5982     ZZ    -178.4861
    Octopole Moments (Debye-Ang^2)
       XXX     834.5804    XXY     -70.1367    XYY      72.8648
       YYY     -18.8858    XXZ      23.0505    XYZ      -0.3934
       YYZ       5.5237    XZZ      66.8858    YZZ      -3.2184
       ZZZ      -1.3078
    Hexadecapole Moments (Debye-Ang^3)
      XXXX  -17703.7844   XXXY     423.1315   XXYY   -2746.3031
      XYYY      90.4296   YYYY   -1767.3335   XXXZ    -150.8910
      XXYZ      17.4440   XYYZ     -34.7396   YYYZ      14.8867
      XXZZ   -2578.5774   XYZZ      20.1701   YYZZ    -460.4554
      XZZZ      -3.7228   YZZZ       8.8159   ZZZZ   -1006.9542
 -----------------------------------------------------------------
 Calculating analytic gradient of the SCF energy
 Gradient of SCF Energy
            1           2           3           4           5           6
    1  -0.0000952  -0.0000741   0.0000791   0.0000249   0.0006204  -0.0000843
    2   0.0001789   0.0001865   0.0000963  -0.0002363   0.0009846  -0.0000657
    3   0.0003574  -0.0001854   0.0000845  -0.0002543   0.0002330  -0.0002686
            7           8           9          10          11          12
    1   0.0000214   0.0000354  -0.0001140   0.0001178  -0.0000071   0.0000402
    2   0.0002474  -0.0002897  -0.0006237  -0.0002083  -0.0002707   0.0002393
    3   0.0001482  -0.0001083  -0.0002161  -0.0002104  -0.0000947  -0.0000773
           13          14          15          16          17          18
    1  -0.0000307  -0.0002122  -0.0002677  -0.0000218   0.0004533  -0.0001093
    2  -0.0000030   0.0004052   0.0002515  -0.0002075  -0.0001712  -0.0001659
    3   0.0000687   0.0004171  -0.0001305   0.0001565  -0.0003154   0.0004153
           19          20          21          22          23          24
    1  -0.0002679   0.0001802   0.0000322   0.0001326  -0.0001436   0.0000124
    2   0.0000187  -0.0000338   0.0001185  -0.0000041  -0.0001062   0.0000092
    3   0.0001091  -0.0001943  -0.0003320  -0.0000664   0.0000840  -0.0000244
           25          26          27          28          29          30
    1   0.0000153   0.0003853  -0.0004322  -0.0003074   0.0000366   0.0000442
    2   0.0000340  -0.0000495   0.0000144  -0.0003793  -0.0000183   0.0000155
    3   0.0000543   0.0002284   0.0000549   0.0001469  -0.0000434  -0.0000227
           31
    1  -0.0000638
    2   0.0000334
    3  -0.0000139
 Max gradient component =       9.846E-04
 RMS gradient           =       2.301E-04
 Gradient time:  CPU 88.19 s  wall 5.08 s

     Step 3	:
        Energy is -2776.4313711531
                            Maximum         Tolerance       Converged?
         Gradient           2.12257799e-03	3.00000000e-04	false
         Displacement       5.67979276e-02	1.20000000e-03	false
         Energy change      9.18424666e-06	1.00000000e-06	false


	OPTIMIZATION CYCLE:	4

 Scaling Magnitude of Eigenvalues
 	Minimum: -25.00000000	 Maximum: 25.00000000
 87 Hessian Eigenvalues to form next step
   0.00182263   0.00201566   0.00215908   0.00305300   0.00325054
   0.00608009   0.01316112   0.01386842   0.01668122   0.02232916
   0.04881509   0.05317765   0.05341993   0.06829437   0.06967338
   0.07220427   0.08044806   0.08081724   0.08264823   0.08422937
   0.08482904   0.08557789   0.08634973   0.08711128   0.08859638
   0.08967499   0.09982073   0.10104372   0.10835874   0.10945144
   0.13706447   0.16857101   0.17195913   0.18265455   0.18568478
   0.19451411   0.20204731   0.20309210   0.20902390   0.21135161
   0.22169420   0.24250422   0.24761737   0.25000000   0.25000000
   0.25000000   0.25000000   0.25000000   0.25000000   0.25000000
   0.25000000   0.25000000   0.25000000   0.25000000   0.25000000
   0.25000000   0.26221078   0.26393272   0.27065731   0.27388048
   0.27676562   0.28063714   0.34862302   0.42198973   0.46685351
   0.47518096   0.50513308   0.51234943   0.52393655   0.52536969
   0.52547074   0.54426967   0.54851046   0.55922839   0.56302457
   0.56387245   0.56495769   0.56824119   0.57212903   0.57655413
   0.57813213   0.57994194   0.58054393   0.58158133   0.83622518
   0.84089197   0.84471382

 Minimum Search taking a RFO step
 Searching for Lambda that minimizes along all modes
	Value of Lambda   -0.00012464
	Norm  of Stepsize  0.10516411
	RMS   of Stepsize  0.01127478

	Performing Iterative Coordinate Back-Transformation

	  Starting from Previous Position

	  iter:	0	rms: 1.7841746672e-02	maxdev: 7.5419854508e-02
	  iter:	1	rms: 1.7676807913e-04	maxdev: 7.2928109814e-04
	  iter:	2	rms: 1.6554805691e-08	maxdev: 1.2132592878e-07	 Success!

	Finished Iterative Coordinate Back-Transformation
 ----------------------------------------------------------------
             Standard Nuclear Orientation (Angstroms)
    I     Atom           X                Y                Z
 ----------------------------------------------------------------
    1      C       4.1199030431     1.4414460294     0.7361497512
    2      F       3.3717803289     2.5311136429     0.9301595779
    3      F       4.2863896169     0.8108479545     1.9046216626
    4      C       3.4188555719     0.5185464747    -0.2967406681
    5      O       2.2035022408     0.1331154252     0.2672221224
    6      C       1.0090940232     0.3017803248    -0.4207431150
    7      C      -0.1336113987    -0.3712863816     0.4089407874
    8      F       0.0077373666     0.0627918008     1.7033763428
    9      F       5.3245659902     1.8231162637     0.2802073464
   10      C       4.2265619302    -0.7596754968    -0.6516964023
   11      F       4.4856785457    -1.4701689774     0.4538691824
   12      F       3.2861667280     1.2410518601    -1.4445248347
   13      F       3.5269210545    -1.5179366552    -1.5002473691
   14      F       5.3918687715    -0.4298446767    -1.2322928954
   15      F       1.0656912833    -0.2533746514    -1.6511389713
   16      F       0.7497372605     1.6122678311    -0.5685007136
   17      O      -1.2796845777     0.0880320484    -0.1891908406
   18      C      -2.5863375161    -0.2720922642     0.2393072431
   19      C      -0.0021003823    -1.9273661367     0.4630965254
   20      C      -3.5572517671     0.7660111187    -0.3675472575
   21      F      -2.8608160131    -1.5147285971    -0.1986339858
   22      F      -2.6360254406    -0.2772949034     1.5800057673
   23      S      -5.3989825024     0.4369986357    -0.1090441765
   24      F      -3.2177450121     1.9656088170     0.1810832677
   25      F      -3.2819961592     0.8236997808    -1.7001845401
   26      F      -0.8423933170    -2.4329309848     1.3713637865
   27      F      -0.2601173416    -2.4692431566    -0.7321566734
   28      F       1.2480229316    -2.2870306863     0.8216927831
   29      O      -5.9954185870     1.6861719277    -0.6267721522
   30      O      -5.6277228734    -0.7732415649    -0.9275398462
   31      O      -5.4784454802     0.2419600448     1.3559490280
 ----------------------------------------------------------------
 Molecular Point Group                 C1    NOp =  1
 Largest Abelian Subgroup              C1    NOp =  1
 Nuclear Repulsion Energy =        4362.78376850 hartrees
 There are      129 alpha and      129 beta electrons
 Applying Cartesian multipole field
    Component          Value
    ---------          -----
     (2,0,0)        1.00000E-12
     (0,2,0)        2.00000E-11
     (0,0,2)       -3.00000E-11
 Nucleus-field energy     = 1.6765074933e-08 hartrees
 Requested basis set is 6-31G(d)
 There are 125 shells and 469 basis functions
 A cutoff of  1.0D-12 yielded   3994 shell pairs
 There are     63593 function pairs
 Smallest overlap matrix eigenvalue = 1.32E-03
 Guess MOs from SCF MO coefficient file

 -----------------------------------------------------------------------
  General SCF calculation program by
  Eric Jon Sundstrom, Paul Horn, Yuezhi Mao, Dmitri Zuev, Alec White,
  David Stuck, Shaama M.S., Shane Yost, Joonho Lee, David Small,
  Daniel Levine, Susi Lehtola, Hugh Burton, Evgeny Epifanovsky,
  Bang C. Huynh
 -----------------------------------------------------------------------
 Exchange:     0.2000 Hartree-Fock + 0.0800 Slater + 0.7200 B88
 Correlation:  0.1900 VWN1RPA + 0.8100 LYP
 Using SG-1 standard quadrature grid
 A restricted SCF calculation will be
 performed using DIIS
 SCF converges when DIIS error is below 1.0e-08
 ---------------------------------------
  Cycle       Energy         DIIS error
 ---------------------------------------
    1   -2776.4299217323      1.79e-04  
    2   -2776.4314041722      2.12e-05  
    3   -2776.4314099382      2.15e-05  
    4   -2776.4314180314      7.80e-06  
    5   -2776.4314191895      2.30e-06  
    6   -2776.4314192858      4.04e-07  
    7   -2776.4314192884      1.78e-07  
    8   -2776.4314192889      3.20e-08  
    9   -2776.4314192890      8.87e-09  Convergence criterion met
 ---------------------------------------
 SCF time:   CPU 385.51s  wall 9.00s 
 SCF   energy = -2776.43141929
 Total energy = -2776.43141929
 
 --------------------------------------------------------------
 
                    Orbital Energies (a.u.)
 --------------------------------------------------------------
 
 Alpha MOs
 -- Occupied --
-88.9416 -24.6989 -24.6984 -24.6978 -24.6977 -24.6972 -24.6966 -24.6938
-24.6732 -24.6694 -24.6682 -24.6672 -24.6666 -24.6479 -24.6254 -24.6237
-24.5911 -24.5908 -19.1713 -19.1291 -18.9624 -18.9617 -18.9614 -10.4086
-10.4083 -10.3786 -10.3744 -10.3360 -10.3214 -10.3025 -10.2349  -7.9627
 -5.9278  -5.9268  -5.9268  -1.2839  -1.2765  -1.2505  -1.2345  -1.2109
 -1.1926  -1.1912  -1.1895  -1.1886  -1.1878  -1.1685  -1.1606  -1.1594
[...]
	  iter:	2	rms: 1.3579917352e-10	maxdev: 8.2223374806e-10	 Success!

	Finished Iterative Coordinate Back-Transformation
 ----------------------------------------------------------------
             Standard Nuclear Orientation (Angstroms)
    I     Atom           X                Y                Z
 ----------------------------------------------------------------
    1      C       4.0334183953     1.4950106499     0.7110965068
    2      F       3.2021332560     2.5280247687     0.8732424795
    3      F       4.2297679766     0.8997901394     1.8942116642
    4      C       3.4199969999     0.4987678740    -0.3082617890
    5      O       2.2118963249     0.0484795452     0.2255781090
    6      C       1.0177859468     0.2402579594    -0.4539187314
    7      C      -0.1310963994    -0.4179293964     0.3805789725
    8      F       0.0285283779     0.0065497712     1.6764106160
    9      F       5.2123445246     1.9579212862     0.2635153605
   10      C       4.3005017257    -0.7464701547    -0.5940706751
   11      F       4.5055795816    -1.4469849412     0.5279947822
   12      F       3.2855812630     1.1713059729    -1.4852907124
   13      F       3.6884270424    -1.5273761957    -1.4898470973
   14      F       5.4922196882    -0.3754567946    -1.0906393429
   15      F       1.0653811655    -0.3133229101    -1.6859683410
   16      F       0.7750754583     1.5544889886    -0.5989493239
   17      O      -1.2736542256     0.0659493087    -0.2043779242
   18      C      -2.5818952285    -0.2723173429     0.2372853888
   19      C      -0.0269206791    -1.9763997908     0.4240516659
   20      C      -3.5401784506     0.7912932266    -0.3447149673
   21      F      -2.8851305259    -1.5046592980    -0.2107002144
   22      F      -2.6158535332    -0.2914139566     1.5785097036
   23      S      -5.3843798850     0.4967346887    -0.0622871081
   24      F      -3.1687244142     1.9780870856     0.2111902549
   25      F      -3.2832421446     0.8575541220    -1.6806333881
   26      F      -0.8701831139    -2.4746792227     1.3332091176
   27      F      -0.3030369378    -2.5057619897    -0.7732495323
   28      F       1.2186755725    -2.3596794868     0.7725155093
   29      O      -5.9636804688     1.7618894954    -0.5602566164
   30      O      -5.6487913522    -0.7012400048    -0.8880122309
   31      O      -5.4467176221     0.2899314495     1.4018785961
 ----------------------------------------------------------------
 Molecular Point Group                 C1    NOp =  1
 Largest Abelian Subgroup              C1    NOp =  1
 Nuclear Repulsion Energy =        4361.14379817 hartrees
 There are      129 alpha and      129 beta electrons
 Applying Cartesian multipole field
    Component          Value
    ---------          -----
     (2,0,0)        1.00000E-12
     (0,2,0)        2.00000E-11
     (0,0,2)       -3.00000E-11
 Nucleus-field energy     = 1.8259605925e-08 hartrees
 Requested basis set is 6-31G(d)
 There are 125 shells and 469 basis functions
 A cutoff of  1.0D-12 yielded   3990 shell pairs
 There are     63535 function pairs
 Smallest overlap matrix eigenvalue = 1.31E-03
 Guess MOs from SCF MO coefficient file

 -----------------------------------------------------------------------
  General SCF calculation program by
  Eric Jon Sundstrom, Paul Horn, Yuezhi Mao, Dmitri Zuev, Alec White,
  David Stuck, Shaama M.S., Shane Yost, Joonho Lee, David Small,
  Daniel Levine, Susi Lehtola, Hugh Burton, Evgeny Epifanovsky,
  Bang C. Huynh
 -----------------------------------------------------------------------
 Exchange:     0.2000 Hartree-Fock + 0.0800 Slater + 0.7200 B88
 Correlation:  0.1900 VWN1RPA + 0.8100 LYP
 Using SG-1 standard quadrature grid
 A restricted SCF calculation will be
 performed using DIIS
 SCF converges when DIIS error is below 1.0e-08
 ---------------------------------------
  Cycle       Energy         DIIS error
 ---------------------------------------
    1   -2776.4313971623      4.31e-05  
    2   -2776.4314840167      5.10e-06  
    3   -2776.4314842993      5.67e-06  
    4   -2776.4314848719      1.61e-06  
    5   -2776.4314849156      7.23e-07  
    6   -2776.4314849254      7.36e-08  
    7   -2776.4314849255      3.10e-08  
    8   -2776.4314849254      8.39e-09  Convergence criterion met
 ---------------------------------------
 SCF time:   CPU 333.52s  wall 8.00s 
 SCF   energy = -2776.43148493
 Total energy = -2776.43148493
 
 --------------------------------------------------------------
 
                    Orbital Energies (a.u.)
 --------------------------------------------------------------
 
 Alpha MOs
 -- Occupied --
-88.9415 -24.6990 -24.6985 -24.6981 -24.6977 -24.6974 -24.6964 -24.6942
-24.6721 -24.6691 -24.6687 -24.6669 -24.6664 -24.6478 -24.6253 -24.6236
-24.5911 -24.5908 -19.1712 -19.1291 -18.9624 -18.9616 -18.9613 -10.4086
-10.4082 -10.3784 -10.3742 -10.3359 -10.3213 -10.3024 -10.2349  -7.9626
 -5.9277  -5.9268  -5.9268  -1.2839  -1.2765  -1.2503  -1.2343  -1.2112
 -1.1927  -1.1911  -1.1895  -1.1886  -1.1877  -1.1682  -1.1603  -1.1592
 -1.1584  -1.1335  -1.1164  -1.0758  -1.0571  -1.0120  -0.9456  -0.8121
 -0.8112  -0.7863  -0.7360  -0.6823  -0.6644  -0.6595  -0.6208  -0.5972
 -0.5810  -0.5767  -0.5684  -0.5611  -0.5536  -0.5478  -0.5433  -0.5357
 -0.5335  -0.5295  -0.5269  -0.5114  -0.5058  -0.4943  -0.4743  -0.4699
 -0.4505  -0.4469  -0.4338  -0.4304  -0.4241  -0.4240  -0.4212  -0.4179
 -0.4155  -0.4031  -0.4013  -0.3977  -0.3961  -0.3930  -0.3927  -0.3857
 -0.3817  -0.3789  -0.3751  -0.3722  -0.3707  -0.3683  -0.3661  -0.3649
 -0.3614  -0.3510  -0.3473  -0.3428  -0.3415  -0.3356  -0.3345  -0.3247
 -0.3187  -0.3142  -0.3017  -0.2975  -0.2829  -0.2825  -0.2814  -0.2780
 -0.2745  -0.2566  -0.2495  -0.1678  -0.1674  -0.1379  -0.1360  -0.1280
 -0.0903
 -- Virtual --
  0.0971   0.1131   0.1388   0.1577   0.1989   0.2049   0.2117   0.2130
  0.2277   0.2373   0.2414   0.2461   0.2548   0.2590   0.2670   0.2715
  0.2782   0.2885   0.2995   0.3033   0.3092   0.3165   0.3234   0.3278
  0.3416   0.3586   0.3814   0.3883   0.4133   0.4278   0.4775   0.4847
  0.4915   0.5040   0.5136   0.5248   0.5310   0.5429   0.5494   0.5574
  0.5600   0.5755   0.5814   0.6005   0.6092   0.6143   0.6567   0.6663
  0.6722   0.6802   0.6911   0.6952   0.7032   0.7269   0.7409   0.7662
  0.7716   0.7963   0.8303   0.8872   0.9077   0.9178   0.9367   0.9494
  0.9622   0.9712   0.9839   0.9893   1.0074   1.0247   1.0307   1.0478
  1.0621   1.0750   1.0820   1.0971   1.1016   1.1135   1.1198   1.1277
  1.1384   1.1423   1.1439   1.1564   1.1621   1.1637   1.1804   1.1865
  1.1937   1.1992   1.2025   1.2089   1.2174   1.2253   1.2318   1.2466
  1.2567   1.2660   1.2735   1.2859   1.2885   1.2987   1.3109   1.3205
  1.3220   1.3301   1.3390   1.3470   1.3497   1.3530   1.3648   1.3669
  1.3708   1.3826   1.3854   1.3908   1.3924   1.3966   1.4041   1.4051
  1.4093   1.4181   1.4230   1.4254   1.4309   1.4407   1.4476   1.4572
  1.4585   1.4645   1.4684   1.4733   1.4765   1.4830   1.4877   1.4921
  1.4970   1.5024   1.5116   1.5183   1.5262   1.5324   1.5353   1.5489
  1.5501   1.5720   1.5990   1.6146   1.6241   1.6352   1.6405   1.6536
  1.6662   1.6734   1.6771   1.6810   1.7015   1.7077   1.7189   1.7271
  1.7365   1.7475   1.7522   1.7554   1.7643   1.7682   1.7863   1.7992
  1.8032   1.8291   1.8358   1.8513   1.8580   1.8595   1.8625   1.8710
  1.8743   1.8758   1.8791   1.8873   1.8932   1.8973   1.8987   1.9138
  1.9190   1.9258   1.9307   1.9424   1.9477   1.9547   1.9604   1.9623
  1.9712   1.9748   1.9766   1.9869   1.9887   1.9914   1.9935   2.0036
  2.0089   2.0106   2.0185   2.0300   2.0409   2.0443   2.0475   2.0583
  2.0641   2.0725   2.0803   2.0836   2.0892   2.0897   2.0990   2.1132
  2.1149   2.1178   2.1228   2.1280   2.1369   2.1396   2.1448   2.1536
  2.1715   2.1816   2.1893   2.1986   2.2052   2.2215   2.2272   2.2335
  2.2452   2.2483   2.2518   2.2581   2.2645   2.2854   2.2915   2.3052
  2.3299   2.3418   2.3601   2.3725   2.3770   2.3889   2.4186   2.4276
  2.4428   2.4501   2.4585   2.4732   2.4834   2.4897   2.4943   2.4966
  2.5068   2.5203   2.5269   2.5424   2.5783   2.6224   2.6370   2.6479
  2.6682   2.6828   2.7135   2.7220   2.7503   2.7591   2.8280   2.8426
  2.8607   2.8683   2.8783   2.8842   2.8881   2.8980   2.9320   2.9395
  2.9444   2.9487   2.9632   2.9652   2.9911   2.9931   3.0010   3.0286
  3.0566   3.0653   3.0848   3.0910   3.1033   3.1177   3.1287   3.1462
  3.1569   3.1585   3.1853   3.1943   3.2004   3.2207   3.2475   3.2525
  3.2686   3.2874   3.2917   3.3204   3.3417   3.9582   4.0354   4.0488
  4.1195   4.2173   4.2665   4.2928   4.3064   4.3647   4.4472   4.4644
  4.5218   4.5979   4.6374   4.7224   4.7546   4.8071   4.8250   4.9091
  4.9979   5.2635   5.3054   5.3476   5.4776   5.5329   5.6729   5.7149
  5.8192   6.0076   6.0640   6.8111
 --------------------------------------------------------------
 
          Ground-State Mulliken Net Atomic Charges

     Atom                 Charge (a.u.)
  ----------------------------------------
      1 C                     0.809492
      2 F                    -0.240812
      3 F                    -0.244172
      4 C                     0.376968
      5 O                    -0.531683
      6 C                     0.812458
      7 C                     0.429833
      8 F                    -0.290664
      9 F                    -0.253060
     10 C                     0.808963
     11 F                    -0.243305
     12 F                    -0.280801
     13 F                    -0.243477
     14 F                    -0.252771
     15 F                    -0.267487
     16 F                    -0.259395
     17 O                    -0.543555
     18 C                     0.782427
     19 C                     0.799789
     20 C                     0.321800
     21 F                    -0.257516
     22 F                    -0.256708
     23 S                     1.113656
     24 F                    -0.289439
     25 F                    -0.289408
     26 F                    -0.244239
     27 F                    -0.244653
     28 F                    -0.263439
     29 O                    -0.579627
     30 O                    -0.586416
     31 O                    -0.592761
  ----------------------------------------
  Sum of atomic charges =    -1.000000

 -----------------------------------------------------------------
                    Cartesian Multipole Moments
 -----------------------------------------------------------------
    Charge (ESU x 10^10)
                -4.8032
    Dipole Moment (Debye)
         X      22.7776      Y      -2.0467      Z       0.1633
       Tot      22.8699
    Quadrupole Moments (Debye-Ang)
        XX    -307.8935     XY      12.5977     YY    -179.4424
        XZ      -2.0808     YZ       0.4923     ZZ    -178.4136
    Octopole Moments (Debye-Ang^2)
       XXX     829.9783    XXY     -78.2773    XYY      74.2105
       YYY     -21.9217    XXZ      15.5996    XYZ       0.2312
       YYZ       4.6726    XZZ      66.2117    YZZ      -3.9784
       ZZZ      -3.6362
    Hexadecapole Moments (Debye-Ang^3)
      XXXX  -17612.0029   XXXY     492.3801   XXYY   -2756.3171
      XYYY     134.4185   YYYY   -1818.9350   XXXZ     -86.7232
      XXYZ      11.8818   XYYZ     -21.5083   YYYZ      11.0383
      XXZZ   -2562.5044   XYZZ      33.5396   YYZZ    -464.9181
      XZZZ      32.0527   YZZZ       4.0639   ZZZZ    -988.8811
 -----------------------------------------------------------------
 Calculating analytic gradient of the SCF energy
 Gradient of SCF Energy
            1           2           3           4           5           6
    1  -0.0000200  -0.0000282   0.0000117   0.0000239  -0.0000148   0.0000115
    2  -0.0000439   0.0000259   0.0000109   0.0000077  -0.0000009  -0.0000217
    3   0.0000469  -0.0000105  -0.0000548  -0.0000150  -0.0000009  -0.0000171
            7           8           9          10          11          12
    1   0.0000064  -0.0000140   0.0000237   0.0000178   0.0000158   0.0000045
    2   0.0000320  -0.0000093  -0.0000036   0.0000285   0.0000083   0.0000063
    3  -0.0000103   0.0000111  -0.0000214  -0.0000370   0.0000176   0.0000109
           13          14          15          16          17          18
    1  -0.0000038  -0.0000332  -0.0000003   0.0000160  -0.0000031   0.0000079
    2  -0.0000073  -0.0000290   0.0000192   0.0000129  -0.0000404   0.0000040
    3  -0.0000143   0.0000161   0.0000072  -0.0000085   0.0000031  -0.0000091
           19          20          21          22          23          24
    1  -0.0000208   0.0000095   0.0000102   0.0000032   0.0000048   0.0000051
    2   0.0000220  -0.0000028  -0.0000029  -0.0000022  -0.0000031   0.0000072
    3   0.0000767  -0.0000076   0.0000114   0.0000137   0.0000012   0.0000085
           25          26          27          28          29          30
    1  -0.0000061   0.0000046  -0.0000131  -0.0000095  -0.0000033  -0.0000043
    2  -0.0000033   0.0000079  -0.0000176  -0.0000019  -0.0000015  -0.0000020
    3   0.0000158  -0.0000261  -0.0000164  -0.0000153   0.0000065   0.0000072
           31
    1  -0.0000019
    2   0.0000007
    3   0.0000104
 Max gradient component =       7.667E-05
 RMS gradient           =       1.867E-05
 Gradient time:  CPU 87.83 s  wall 5.00 s

     Step 11	:
        Energy is -2776.4314849254
                            Maximum         Tolerance       Converged?
         Gradient           7.97094764e-05	3.00000000e-04	true
         Displacement       7.61315864e-03	1.20000000e-03	false
         Energy change      8.75556907e-07	1.00000000e-06	true

	 Optimization Converged in 11 cycles

 *****************************************************
             End of BFGS Algorithm
 *****************************************************
		----------------------------------
		   Verification of Optimization
		----------------------------------

 Eigenvalues of Hessian in Optimization Verification
   0.00095124   0.00197847   0.00268211   0.00315777   0.00355899
   0.00498846   0.00693990   0.01374222   0.01628643   0.02374544
   0.04886264   0.05304574   0.05351872   0.06831717   0.06994832
   0.07295037   0.08057739   0.08112929   0.08368023   0.08550606
   0.08630658   0.08695080   0.08712750   0.08801263   0.08989498
   0.09713407   0.10377658   0.10832902   0.10950464   0.11396919
   0.13715866   0.16560661   0.17524089   0.17765392   0.19114164
   0.19551342   0.20004827   0.20187064   0.20492706   0.21287688
   0.22520294   0.24209977   0.24521435   0.24728605   0.24823422
   0.24981430   0.25000000   0.25000000   0.25000000   0.25000000
   0.25000000   0.25209550   0.25335435   0.25551575   0.26111431
   0.26214697   0.26963426   0.27103209   0.27494485   0.28035654
   0.29317321   0.38328595   0.38845526   0.45161857   0.46384139
   0.48030798   0.50289176   0.51938411   0.52473971   0.52542986
   0.53287663   0.54793159   0.55441587   0.55634601   0.56365883
   0.56638326   0.56773380   0.56822405   0.57338078   0.57489429
   0.57612714   0.58009448   0.58204646   0.58572821   0.83620282
   0.84090075   0.84471769

 Found a minimum
		---------------------------------
		       End of Verification
		---------------------------------

 Final energy is -2776.431484925422

	******************************
	**  OPTIMIZATION CONVERGED  **
	******************************
 ----------------------------------------------------------------
             Standard Nuclear Orientation (Angstroms)
    I     Atom           X                Y                Z
 ----------------------------------------------------------------
    1      C       4.0334183953     1.4950106499     0.7110965068
    2      F       3.2021332560     2.5280247687     0.8732424795
    3      F       4.2297679766     0.8997901394     1.8942116642
    4      C       3.4199969999     0.4987678740    -0.3082617890
    5      O       2.2118963249     0.0484795452     0.2255781090
    6      C       1.0177859468     0.2402579594    -0.4539187314
    7      C      -0.1310963994    -0.4179293964     0.3805789725
    8      F       0.0285283779     0.0065497712     1.6764106160
    9      F       5.2123445246     1.9579212862     0.2635153605
   10      C       4.3005017257    -0.7464701547    -0.5940706751
   11      F       4.5055795816    -1.4469849412     0.5279947822
   12      F       3.2855812630     1.1713059729    -1.4852907124
   13      F       3.6884270424    -1.5273761957    -1.4898470973
   14      F       5.4922196882    -0.3754567946    -1.0906393429
   15      F       1.0653811655    -0.3133229101    -1.6859683410
   16      F       0.7750754583     1.5544889886    -0.5989493239
   17      O      -1.2736542256     0.0659493087    -0.2043779242
   18      C      -2.5818952285    -0.2723173429     0.2372853888
   19      C      -0.0269206791    -1.9763997908     0.4240516659
   20      C      -3.5401784506     0.7912932266    -0.3447149673
   21      F      -2.8851305259    -1.5046592980    -0.2107002144
   22      F      -2.6158535332    -0.2914139566     1.5785097036
   23      S      -5.3843798850     0.4967346887    -0.0622871081
   24      F      -3.1687244142     1.9780870856     0.2111902549
   25      F      -3.2832421446     0.8575541220    -1.6806333881
   26      F      -0.8701831139    -2.4746792227     1.3332091176
   27      F      -0.3030369378    -2.5057619897    -0.7732495323
   28      F       1.2186755725    -2.3596794868     0.7725155093
   29      O      -5.9636804688     1.7618894954    -0.5602566164
   30      O      -5.6487913522    -0.7012400048    -0.8880122309
   31      O      -5.4467176221     0.2899314495     1.4018785961
 ----------------------------------------------------------------
 Molecular Point Group                 C1    NOp =  1
 Largest Abelian Subgroup              C1    NOp =  1
 Nuclear Repulsion Energy =        4361.14379817 hartrees
 There are      129 alpha and      129 beta electrons

Z-matrix Print:
$molecule
-1 1
S 
O  1 1.477897
O  1 1.478810 2 115.801565
O  1 1.480012 2 115.877202 3 -140.122214 0
C  1 1.888812 2 101.468896 3 110.151340 0
F  5 1.362015 1 109.781702 2 -66.651809 0
F  5 1.362163 1 109.944082 2 51.835405 0
C  5 1.545412 1 116.218518 2 172.298471 0
F  8 1.341790 5 111.749046 1 -65.910987 0
F  8 1.345849 5 111.415232 1 55.393790 0
O  8 1.421614 5 106.850035 1 174.076979 0
C  11 1.371769 8 123.371852 5 162.055637 0
F  12 1.372896 11 112.971159 8 -64.802621 0
C  12 1.562553 11 114.784899 8 56.795335 0
F  14 1.336391 12 110.410184 11 -72.904016 0
F  14 1.337907 12 110.853125 11 48.410794 0
F  14 1.349015 12 110.617137 11 168.208938 0
C  12 1.565097 11 103.632887 8 -179.925108 0
F  18 1.344301 12 109.640911 11 47.321161 0
F  18 1.351541 12 109.855691 11 -71.173403 0
O  18 1.387225 12 108.214007 11 167.406941 0
C  21 1.395440 18 120.879296 12 178.052735 0
F  22 1.362267 21 113.854995 18 2.840799 0
C  22 1.551642 21 107.624992 18 -115.628152 0
F  24 1.336737 22 109.416180 21 61.476834 0
F  24 1.338585 22 110.641465 21 -58.677190 0
F  24 1.343288 22 110.479429 21 -178.941799 0
C  22 1.551733 21 107.343692 18 120.867027 0
F  28 1.335831 22 109.281891 21 -61.197335 0
F  28 1.338881 22 110.673606 21 59.013206 0
F  28 1.343310 22 110.444586 21 179.308304 0
$end

 -----------------------------------------------------------------------
                  END OF GEOMETRY OPTIMIZER USING LIBOPT3               
 -----------------------------------------------------------------------
 Total job time:  181.66s(wall), 6579.04s(cpu) 
 Fri Apr 25 15:49:41 2025

        *************************************************************
        *                                                           *
        *  Thank you very much for using Q-Chem.  Have a nice day.  *
        *                                                           *
        *************************************************************


