
Running Job 1 of 1 input.com
qchem input.com_116644.0 /tmp/scratch/8619257/qchem116644/ 1
/nopt/nrel/apps/software/q-chem/6.2-bq/exe/qcprog.exe_s input.com_116644.0 /tmp/scratch/8619257/qchem116644/
                  Welcome to Q-Chem
     A Quantum Leap Into The Future Of Chemistry


 Q-Chem 6.2, Q-Chem, Inc., Pleasanton, CA (2024)

 License issued to: National Renewable Energy Laboratory (site)

 E. Epifanovsky,  A. T. B. Gilbert,  Xintian Feng,  Joonho Lee,  Yuezhi Mao,  
 N. Mardirossian,  P. Pokhilko,  A. White,  M. Wormit,  M. P. Coons,  
 A. L. Dempwolff,  Zhengting Gan,  D. Hait,  P. R. Horn,  L. D. Jacobson,  
 I. Kaliman,  J. Kussmann,  A. W. Lange,  Ka Un Lao,  D. S. Levine,  Jie Liu,  
 S. C. McKenzie,  A. F. Morrison,  K. D. Nanda,  F. Plasser,  D. R. Rehn,  
 M. L. Vidal,  Zhi-Qiang You,  Ying Zhu,  Huseyin Aksu,  B. Alam,  
 B. Albrecht,  A. Aldossary,  E. Alguire,  J. H. Andersen,  
 J. E. Arias-Martinez,  V. Athavale,  D. Barton,  K. Begam,  A. Behn,  
 N. Bellonzi,  Y. A. Bernard,  E. J. Berquist,  H. Burton,  A. Carreras,  
 K. Carter-Fenk,  Mathew Chow,  Romit Chakraborty,  Chandrima Chakravarty,  
 Junhan Chen,  A. D. Chien,  K. D. Closser,  V. Cofer-Shabica,  L. Cunha,  
 S. Dasgupta,  Jia Deng,  Joseph Dickinson,  M. de Wergifosse,  
 M. Diedenhofen,  Hainam Do,  Wenjie Dou,  S. Ehlert,  Po-Tung Fang,  
 S. Fatehi,  Qingguo Feng,  Jonathan Fetherolf,  T. Friedhoff,  
 Thomas Froitzheim,  Sarai Folkestad,  B. Ganoe,  J. Gayvert,  Qinghui Ge,  
 G. Gidofalvi,  M. Gimferrer,  M. Goldey,  Montgomery Gray,  J. Gomes,  
 C. Gonzalez-Espinoza,  S. Gulania,  A. Gunina,  J. A. Gyamfi,  
 M. W. D. Hanson-Heine,  P. H. P. Harbach,  A. W. Hauser,  M. F. Herbst,  
 M. Hernandez Vera,  M. Hodecker,  Z. C. Holden,  S. Houck,  Xunkun Huang,  
 Kerwin Hui,  B. C. Huynh,  K. Ikeda,  M. Ivanov,  Nayanthara K. Jayadev,  
 Hyunjun Ji,  Zuxin Jin,  Hanjie Jiang,  Subrata Jana,  B. Kaduk,  
 S. Kaehler,  R. Kang,  K. Khistyaev,  Jaehoon Kim,  Yongbin Kim,  
 P. Klunzinger,  Z. Koczor-Benda,  Joong Hoon Koh,  D. Kosenkov,  
 Saikiran Kotaru,  L. Koulias,  T. Kowalczyk,  C. M. Krauter,  K. Kue,  
 A. Kunitsa,  T. Kus,  A. Landau,  K. V. Lawler,  D. Lefrancois,  S. Lehtola,  
 Rain Li,  Shaozhi Li,  Tao E. Li,  Yi-Pei Li,  Jiashu Liang,  M. Liebenthal,  
 Hung-Hsuan Lin,  You-Sheng Lin,  Fenglai Liu,  Kuan-Yu Liu,  Xiao Liu,  
 M. Loipersberger,  A. Luenser,  C. Malbon,  Aniket Mandal,  Manisha,  
 A. Manjanath,  P. Manohar,  E. Mansoor,  S. F. Manzer,  Shan-Ping Mao,  
 A. V. Marenich,  T. Markovich,  S. Mason,  F. Matz,  S. A. Maurer,  
 Samuel May,  Alexandra McIsaac,  P. F. McLaughlin,  M. F. S. J. Menger,  
 J.-M. Mewes,  S. A. Mewes,  P. Morgante,  Mohammad Mostafanejad,  
 Madhubani Mukherjee,  J. W. Mullinax,  Quyen Nguyen,  Avik Kumar Ojha,  
 K. J. Oosterbaan,  Eno Paenurk,  Xiaoliang Pan,  G. Paran,  V. Parravicini,  
 Alexander C. Paul,  Suranjan K. Paul,  F. Pavosevic,  Zheng Pei,  S. Prager,  
 E. I. Proynov,  E. Ramos,  B. Rana,  A. E. Rask,  A. Rettig,  R. M. Richard,  
 F. Rob,  E. Rossomme,  T. Scheele,  M. Scheurer,  M. Schneider,  
 P. E. Schneider,  Tim K. Schramm,  N. Sergueev,  S. M. Sharada,  
 Hengyuan Shen,  W. Skomorowski,  D. W. Small,  C. J. Stein,  
 Alistair J. Sterling,  Yingli Su,  Yu-Chuan Su,  E. J. Sundstrom,  
 J. Talbot,  Zhen Tao,  J. Thirman,  Hung-Yi Tsai,  T. Tsuchimochi,  
 N. M. Tubman,  C. Utku,  S. P. Veccham,  O. Vydrov,  Rahel Weiss,  
 J. Wenzel,  Jonathan Wong,  J. Witte,  H. Wu,  Yanze Wu,  A. Yamada,  
 Chou-Hsun Yang,  Kun Yao,  S. Yeganeh,  S. R. Yost,  Qi Yu,  A. Zech,  
 F. Zeller,  Chongxiao Zhao,  Igor Ying Zhang,  Xing Zhang,  Yu Zhang,  
 D. Zuev,  A. Aspuru-Guzik,  A. T. Bell,  N. A. Besley,  K. B. Bravaya,  
 B. R. Brooks,  D. Casanova,  Jeng-Da Chai,  Hsing-Ta Chen,  S. Coriani,  
 C. J. Cramer,  A. E. DePrince, III,  R. A. DiStasio Jr.,  A. Dreuw,  
 B. D. Dunietz,  T. R. Furlani,  W. A. Goddard III,  S. Grimme,  
 S. Hammes-Schiffer,  T. Head-Gordon,  W. J. Hehre,  Chao-Ping Hsu,  
 T.-C. Jagau,  Yousung Jung,  A. Klamt,  Jing Kong,  D. S. Lambrecht,  
 Xiangyuan Li,  WanZhen Liang,  N. J. Mayhall,  C. W. McCurdy,  J. B. Neaton,  
 T. Neudecker,  C. Ochsenfeld,  J. A. Parkhill,  R. Peverati,  
 V. A. Rassolov,  Haisheng Ren,  Yihan Shao,  L. V. Slipchenko,  
 R. P. Steele,  J. E. Subotnik,  A. J. W. Thom,  A. Tkatchenko,  
 D. G. Truhlar,  T. Van Voorhis,  Fan Wang,  T. A. Wesolowski,  K. B. Whaley,  
 H. L. Woodcock III,  P. M. Zimmerman,  S. Faraji,  P. M. W. Gill,  
 M. Head-Gordon,  J. M. Herbert,  A. I. Krylov

 Contributors to earlier versions of Q-Chem not listed above: 
 R. D. Adamson,  B. Austin,  R. Baer,  J. Baker,  G. J. O. Beran,  
 K. Brandhorst,  S. T. Brown,  E. F. C. Byrd,  Arup K. Chakraborty,  
 G. K. L. Chan,  Chun-Min Chang,  Yunqing Chen,  C.-L. Cheng,  
 Siu Hung Chien,  D. M. Chipman,  D. L. Crittenden,  H. Dachsel,  
 R. J. Doerksen,  A. D. Dutoi,  R. G. Edgar,  J. Fosso-Tande,  
 L. Fusti-Molnar,  D. Ghosh,  A. Ghysels,  A. Golubeva-Zadorozhnaya,  
 J. Gonthier,  M. S. Gordon,  S. R. Gwaltney,  G. Hawkins,  J. E. Herr,  
 A. Heyden,  S. Hirata,  E. G. Hohenstein,  G. Kedziora,  F. J. Keil,  
 C. Kelley,  Jihan Kim,  R. A. King,  R. Z. Khaliullin,  P. P. Korambath,  
 W. Kurlancheek,  A. Laurent,  A. M. Lee,  M. S. Lee,  S. V. Levchenko,  
 Ching Yeh Lin,  D. Liotard,  E. Livshits,  R. C. Lochan,  I. Lotan,  
 L. A. Martinez-Martinez,  P. E. Maslen,  N. Nair,  D. P. O'Neill,  
 D. Neuhauser,  E. Neuscamman,  C. M. Oana,  R. Olivares-Amaya,  R. Olson,  
 T. M. Perrine,  B. Peters,  P. A. Pieniazek,  A. Prociuk,  Y. M. Rhee,  
 J. Ritchie,  M. A. Rohrdanz,  E. Rosta,  N. J. Russ,  H. F. Schaefer III,  
 M. W. Schmidt,  N. E. Schultz,  S. Sharma,  N. Shenvi,  C. D. Sherrill,  
 A. C. Simmonett,  A. Sodt,  T. Stein,  D. Stuck,  K. S. Thanthiriwatte,  
 V. Vanovschi,  L. Vogt,  Tao Wang,  A. Warshel,  M. A. Watson,  
 C. F. Williams,  Q. Wu,  X. Xu,  Jun Yang,  W. Zhang,  Yan Zhao

   Please cite Q-Chem as follows:
  "Software for the frontiers of quantum chemistry:
   An overview of developments in the Q-Chem 5 package"
   J. Chem. Phys. 155, 084801 (2021)
   https://doi.org/10.1063/5.0055522 (open access)

 Q-Chem 6.2.0 for Intel X86 EM64T Linux

 Parts of Q-Chem use Armadillo 9.900.5 (Nocturnal Misbehaviour).
 http://arma.sourceforge.net/

 Q-Chem begins on Fri Apr 25 17:09:59 2025  

 Host: 
0

     Scratch files written to /tmp/scratch/8619257/qchem116644//
 May324 |scratch|qcdevops|jenkins|workspace|build_RNUM -1
 Processing $rem in /nopt/nrel/apps/software/q-chem/6.2-bq/config/preferences:
 Processing $rem in /home/hlong/.qchemrc:

 Checking the input file for inconsistencies... 	...done.
 tid: 0x0 [2025.04.25-17:09:59.673] [INFO] Begin brianAPIInit
 tid: 0x0 [2025.04.25-17:09:59.673] [INFO] Detected compatible BrianQC interface version 5
 tid: 0x0 [2025.04.25-17:09:59.674] [INFO] Reading config from /nopt/nrel/apps/software/q-chem/6.2-bq/brianqc_qchem/config.json
 tid: 0x0 [2025.04.25-17:09:59.675] [INFO] Setting Brian root dir to /nopt/nrel/apps/software/q-chem/6.2-bq/brianqc_qchem
 tid: 0x0 [2025.04.25-17:09:59.676] [INFO] Found kernel DB in config: /nopt/nrel/apps/software/q-chem/6.2-bq/brianqc_qchem/integrators/6336139264-1715983310_kernel_g_v1_5_0_96dfbcf834_CUDA_Tesla_H100.db
 tid: 0x0 [2025.04.25-17:09:59.676] [INFO] Found DFT DB in config: /nopt/nrel/apps/software/q-chem/6.2-bq/brianqc_qchem/integrators/13385728-1716812277_dft_kernel_v1_5_0_c0ea4e0e4a_CUDA_Tesla_H100.db
 tid: 0x0 [2025.04.25-17:09:59.676] [INFO] No MM DBs specified in config, using the default: /nopt/nrel/apps/software/q-chem/6.2-bq/brianqc_qchem/integrators/mm.db
 tid: 0x0 [2025.04.25-17:09:59.676] [WARNING] MM features will not be available, because the MM DB does not exist: /nopt/nrel/apps/software/q-chem/6.2-bq/brianqc_qchem/integrators/mm.db
 tid: 0x0 [2025.04.25-17:09:59.676] [INFO] Start BrianQC module initialization
 tid: 0x0 [2025.04.25-17:09:59.708] [INFO] GPU 0# NVIDIA_H100_80GB_HBM3_GPU-100613c2-44c1-1b7b-e8f4-ced145381d17
 tid: 0x0 [2025.04.25-17:09:59.713] [SYSTEM] BrianQC version: v1_5_0_5a135bfd07 licensed to: Hai Long
 tid: 0x0 [2025.04.25-17:09:59.723] [SYSTEM] Visit us at: https://brianqc.com
 tid: 0x0 [2025.04.25-17:09:59.733] [SYSTEM] BrianQC copyright Streamnovation Ltd. 2013-2022
 tid: 0x0 [2025.04.25-17:09:59.743] [SYSTEM] Contributors: Gy. Cserey, B. Czetenyi, A. Jasz, G. Kis, I. Ladjanszki, A. Rak, G. J. Tornai, A. Vas
 tid: 0x0 [2025.04.25-17:09:59.810] [INFO] Signing in to license server: license.brainqc.com 443
 tid: 0x0 [2025.04.25-17:10:03.775] [ERROR] License server denied login: Internal server error
 tid: 0x0 [2025.04.25-17:10:03.785] [WARNING] Retrying login
 tid: 0x0 [2025.04.25-17:10:07.535] [INFO] Started license watchdog on pid 117928
 tid: 0x0 [2025.04.25-17:10:07.535] [INFO] Scratch dir is disabled, storing everything in memory
 tid: 0x0 [2025.04.25-17:10:07.954] [INFO] Detected device: CPU
 tid: 0x0 [2025.04.25-17:10:07.954] [INFO] Detected device: CUDA NVIDIA H100 80GB HBM3#0000:04:00.0
 tid: 0x0 [2025.04.25-17:10:07.958] [INFO] Allocating 3 threads for GPU: CUDA NVIDIA H100 80GB HBM3#0000:04:00.0 on node 0
 tid: 0x0 [2025.04.25-17:10:12.453] [INFO] Used GPU count: 1
 tid: 0x0 [2025.04.25-17:10:13.703] [INFO] End BrianQC module initialization
 tid: 0x0 [2025.04.25-17:10:13.708] [INFO] End brianAPIInit
 tid: 0x0 [2025.04.25-17:10:13.708] [INFO] Running preliminary BrianQC license check...
 tid: 0x0 [2025.04.25-17:10:13.708] [INFO] Preliminary BrianQC license check passed

--------------------------------------------------------------
User input:
--------------------------------------------------------------
$molecule
-1 1
C          4.11643       -1.48041       -0.71113
F          3.39409       -2.59960       -0.81726
F          4.22860       -0.91587       -1.91896
C          3.42207       -0.51789        0.28967
O          2.19271       -0.17339       -0.26905
C          1.01327       -0.29967        0.45351
C         -0.13361        0.37168       -0.37411
F          0.01715       -0.04365       -1.67355
F          5.34489       -1.80262       -0.27209
C          4.22273        0.78391        0.56775
F          4.46092        1.43773       -0.57729
F          3.31939       -1.18796        1.47185
F          3.52926        1.58045        1.38565
F          5.39884        0.49440        1.14858
F          1.10896        0.29403        1.66422
F          0.73814       -1.59933        0.65313
O         -1.28286       -0.10001        0.20694
C         -2.58410        0.27338       -0.22864
C         -0.00545        1.92942       -0.40146
C         -3.56377       -0.78378        0.32897
F         -2.86180        1.50249        0.24397
F         -2.61581        0.32085       -1.56915
S         -5.40120       -0.42965        0.07649
F         -3.22844       -1.95967       -0.27102
F         -3.29595       -0.90240        1.65906
F         -0.81928        2.44862       -1.32551
F         -0.30038        2.45428        0.79272
F          1.25554        2.29549       -0.71642
O         -6.01000       -1.70152        0.51923
O         -5.62749        0.73480        0.95974
O         -5.46900       -0.15244       -1.37593
$end

$rem
job_type=opt
basis=aug-cc-pvtz
method=b3lyp
$end
--------------------------------------------------------------
 ----------------------------------------------------------------
             Standard Nuclear Orientation (Angstroms)
    I     Atom           X                Y                Z
 ----------------------------------------------------------------
    1      C       4.1164293037     1.4804112804     0.7111283217
    2      F       3.3940892428     2.5996013103     0.8172575923
    3      F       4.2285995215     0.9158721909     1.9189587271
    4      C       3.4220692212     0.5178904848    -0.2896708558
    5      O       2.1927093276     0.1733908182     0.2690495840
    6      C       1.0132692118     0.2996701973    -0.4535103354
    7      C      -0.1336106194    -0.3716792626     0.3741103366
    8      F       0.0171495449     0.0436517190     1.6735500037
    9      F       5.3448892165     1.8026210364     0.2720878986
   10      C       4.2227292691    -0.7839096682    -0.5677500015
   11      F       4.4609194837    -1.4377287960     0.5772904519
   12      F       3.3193889999     1.1879595941    -1.4718513415
   13      F       3.5292592023    -1.5804503271    -1.3856493033
   14      F       5.3988391631    -0.4944000218    -1.1485803924
   15      F       1.1089590729    -0.2940307011    -1.6642199058
   16      F       0.7381390932     1.5993300293    -0.6531312660
   17      O      -1.2828607379     0.1000102244    -0.2069398455
   18      C      -2.5841006477    -0.2733795392     0.2286406266
   19      C      -0.0054505087    -1.9294192334     0.4014614819
   20      C      -3.5637708029     0.7837799769    -0.3289700183
   21      F      -2.8618006337    -1.5024899114    -0.2439684135
   22      F      -2.6158104456    -0.3208485393     1.5691506668
   23      S      -5.4012007412     0.4296500398    -0.0764894810
   24      F      -3.2284407944     1.9596704484     0.2710190530
   25      F      -3.2959510083     0.9023990011    -1.6590601467
   26      F      -0.8192803361    -2.4486185984     1.3255119907
   27      F      -0.3003806499    -2.4542801462    -0.7927180820
   28      F       1.2555395631    -2.2954889116     0.7164215685
   29      O      -6.0100008940     1.7015196672    -0.5192303414
   30      O      -5.6274907924    -0.7348006359    -0.9597385771
   31      O      -5.4690005067     0.1524411208     1.3759307362
 ----------------------------------------------------------------
 Molecular Point Group                 C1    NOp =  1
 Largest Abelian Subgroup              C1    NOp =  1
 Nuclear Repulsion Energy =        4364.44217231 hartrees
 There are      129 alpha and      129 beta electrons
 Requested basis set is aug-cc-pVTZ
 There are 436 shells and 1430 basis functions

 Total QAlloc Memory Limit 318000 MB
 Mega-Array Size       188 MB
 MEM_STATIC part       192 MB

 -----------------------------------------------------------------------
                STARTING GEOMETRY OPTIMIZER USING LIBOPT3
                by Peter F. McLaughlin, Yu Zhang, Evgeny Epifanovsky
 -----------------------------------------------------------------------

              Initial Energy and Gradient Calculation
   -- Checking Topology for Ill-Behaving Coordinates --

 -------------------------------------------
   Coordinate       |  Removed | Additions 
 -------------------------------------------
	Bonds                     0          0
	Angles                    0          0
	Torsions                  0          0
	Co-Linear Type5s          0          0
	Co-Linear Type6s          0          0
 -------------------------------------------
     Done Checking Topology
 ----------------------------------------------------------------
             Standard Nuclear Orientation (Angstroms)
    I     Atom           X                Y                Z
 ----------------------------------------------------------------
    1      C       4.1164293037     1.4804112804     0.7111283217
    2      F       3.3940892428     2.5996013103     0.8172575923
    3      F       4.2285995215     0.9158721909     1.9189587271
    4      C       3.4220692212     0.5178904848    -0.2896708558
    5      O       2.1927093276     0.1733908182     0.2690495840
    6      C       1.0132692118     0.2996701973    -0.4535103354
    7      C      -0.1336106194    -0.3716792626     0.3741103366
    8      F       0.0171495449     0.0436517190     1.6735500037
    9      F       5.3448892165     1.8026210364     0.2720878986
   10      C       4.2227292691    -0.7839096682    -0.5677500015
   11      F       4.4609194837    -1.4377287960     0.5772904519
   12      F       3.3193889999     1.1879595941    -1.4718513415
   13      F       3.5292592023    -1.5804503271    -1.3856493033
   14      F       5.3988391631    -0.4944000218    -1.1485803924
   15      F       1.1089590729    -0.2940307011    -1.6642199058
   16      F       0.7381390932     1.5993300293    -0.6531312660
   17      O      -1.2828607379     0.1000102244    -0.2069398455
   18      C      -2.5841006477    -0.2733795392     0.2286406266
   19      C      -0.0054505087    -1.9294192334     0.4014614819
   20      C      -3.5637708029     0.7837799769    -0.3289700183
   21      F      -2.8618006337    -1.5024899114    -0.2439684135
   22      F      -2.6158104456    -0.3208485393     1.5691506668
   23      S      -5.4012007412     0.4296500398    -0.0764894810
   24      F      -3.2284407944     1.9596704484     0.2710190530
   25      F      -3.2959510083     0.9023990011    -1.6590601467
   26      F      -0.8192803361    -2.4486185984     1.3255119907
   27      F      -0.3003806499    -2.4542801462    -0.7927180820
   28      F       1.2555395631    -2.2954889116     0.7164215685
   29      O      -6.0100008940     1.7015196672    -0.5192303414
   30      O      -5.6274907924    -0.7348006359    -0.9597385771
   31      O      -5.4690005067     0.1524411208     1.3759307362
 ----------------------------------------------------------------
 Molecular Point Group                 C1    NOp =  1
 Largest Abelian Subgroup              C1    NOp =  1
 Nuclear Repulsion Energy =        4364.44217231 hartrees
 There are      129 alpha and      129 beta electrons
 Requested basis set is aug-cc-pVTZ
 There are 436 shells and 1430 basis functions
 A cutoff of  1.0D-12 yielded  65960 shell pairs
 There are    668080 function pairs (    932726 Cartesian)
 Smallest overlap matrix eigenvalue = 3.36E-06

 Scale SEOQF with 1.000000e-02/1.000000e-01/1.000000e-01

 Standard Electronic Orientation quadrupole field applied
 Nucleus-field energy     =     0.0000000181 hartrees
 Guess from superposition of atomic densities
 Warning:  Energy on first SCF cycle will be non-variational
 SAD guess density has 257.000000 electrons

 -----------------------------------------------------------------------
  General SCF calculation program by
  Eric Jon Sundstrom, Paul Horn, Yuezhi Mao, Dmitri Zuev, Alec White,
  David Stuck, Shaama M.S., Shane Yost, Joonho Lee, David Small,
  Daniel Levine, Susi Lehtola, Hugh Burton, Evgeny Epifanovsky,
  Bang C. Huynh
 -----------------------------------------------------------------------
 Exchange:     0.2000 Hartree-Fock + 0.0800 Slater + 0.7200 B88
 Correlation:  0.1900 VWN1RPA + 0.8100 LYP
 Using SG-1 standard quadrature grid
 ---- BrianQC HCore successfully initialized ---- 
 ---- BrianQC J/K successfully initialized ---- 
 ---- BrianQC XC successfully initialized ---- 
BrianQC JK build time 6.0000000000 (s)
BrianQC XC build time 1.0000000000 (s)
 A restricted SCF calculation will be
 performed using DIIS
 SCF converges when DIIS error is below 1.0e-08
 ---------------------------------------
  Cycle       Energy         DIIS error
 ---------------------------------------
BrianQC JK build time 3.3e+01 (s)
BrianQC XC build time 1.0e+00 (s)
    1   -2783.0604405199      1.16e-02  
BrianQC JK build time 3.20e+01 (s)
BrianQC XC build time 1.00e+00 (s)
    2   -2776.7256185908      2.18e-03  
BrianQC JK build time 3.10e+01 (s)
BrianQC XC build time 0.00e+00 (s)
    3   -2772.8030210306      4.51e-03  
BrianQC JK build time 2.80e+01 (s)
BrianQC XC build time 1.00e+00 (s)
    4   -2777.3329595916      8.74e-04  
BrianQC JK build time 2.70e+01 (s)
BrianQC XC build time 1.00e+00 (s)
    5   -2777.4888591363      1.98e-04  
BrianQC JK build time 2.60e+01 (s)
BrianQC XC build time 1.00e+00 (s)
    6   -2777.4959502073      1.42e-04  
BrianQC JK build time 2.40e+01 (s)
BrianQC XC build time 1.00e+00 (s)
    7   -2777.4991964993      4.28e-05  
BrianQC JK build time 2.20e+01 (s)
BrianQC XC build time 1.00e+00 (s)
    8   -2777.4994271955      2.46e-05  
BrianQC JK build time 2.10e+01 (s)
BrianQC XC build time 1.00e+00 (s)
    9   -2777.4995276663      6.32e-06  
BrianQC JK build time 1.90e+01 (s)
BrianQC XC build time 1.00e+00 (s)
   10   -2777.4995346483      1.84e-06  
BrianQC JK build time 1.70e+01 (s)
BrianQC XC build time 1.00e+00 (s)
   11   -2777.4995350257      6.66e-07  
BrianQC JK build time 1.60e+01 (s)
BrianQC XC build time 1.00e+00 (s)
   12   -2777.4995350578      1.88e-07  
BrianQC JK build time 1.40e+01 (s)
BrianQC XC build time 1.00e+00 (s)
   13   -2777.4995350779      5.70e-08  
BrianQC JK build time 1.40e+01 (s)
BrianQC XC build time 1.00e+00 (s)
   14   -2777.4995350791      2.66e-08  
   15   -2777.4995350645      9.75e-09  Convergence criterion met
 ---------------------------------------
 SCF time:   CPU 1182.19s  wall 359.00s 
 SCF   energy = -2777.49953506
 Total energy = -2777.49953506
 
 --------------------------------------------------------------
 
                    Orbital Energies (a.u.)
 --------------------------------------------------------------
 
 Alpha MOs
 -- Occupied --
-88.9523 -24.6995 -24.6986 -24.6985 -24.6984 -24.6977 -24.6973 -24.6938
-24.6736 -24.6710 -24.6694 -24.6685 -24.6676 -24.6510 -24.6273 -24.6252
-24.5989 -24.5988 -19.1686 -19.1287 -18.9654 -18.9639 -18.9637 -10.4153
-10.4146 -10.3866 -10.3822 -10.3464 -10.3313 -10.3139 -10.2505  -7.9699
 -5.9352  -5.9330  -5.9330  -1.3044  -1.2969  -1.2720  -1.2556  -1.2321
 -1.2138  -1.2125  -1.2108  -1.2106  -1.2097  -1.1915  -1.1830  -1.1817
 -1.1813  -1.1610  -1.1398  -1.1039  -1.0764  -1.0329  -0.9670  -0.8357
 -0.8346  -0.8070  -0.7582  -0.7039  -0.6872  -0.6828  -0.6435  -0.6203
 -0.6034  -0.5992  -0.5910  -0.5853  -0.5760  -0.5708  -0.5659  -0.5594
 -0.5566  -0.5532  -0.5511  -0.5343  -0.5294  -0.5194  -0.4995  -0.4947
 -0.4770  -0.4708  -0.4584  -0.4544  -0.4501  -0.4489  -0.4481  -0.4424
 -0.4408  -0.4286  -0.4272  -0.4223  -0.4211  -0.4186  -0.4170  -0.4106
 -0.4068  -0.4049  -0.4005  -0.3973  -0.3966  -0.3937  -0.3915  -0.3899
 -0.3871  -0.3767  -0.3727  -0.3682  -0.3660  -0.3622  -0.3606  -0.3516
 -0.3467  -0.3398  -0.3308  -0.3250  -0.3101  -0.3084  -0.3070  -0.3034
 -0.3026  -0.2820  -0.2777  -0.1956  -0.1953  -0.1674  -0.1653  -0.1570
 -0.1210
 -- Virtual --
  0.0510   0.0610   0.0690   0.0749   0.0897   0.0950   0.0961   0.1005
  0.1065   0.1068   0.1104   0.1228   0.1275   0.1314   0.1323   0.1359
  0.1370   0.1385   0.1484   0.1498   0.1551   0.1620   0.1650   0.1674
  0.1701   0.1707   0.1751   0.1764   0.1774   0.1798   0.1831   0.1862
  0.1880   0.1906   0.1942   0.1963   0.2025   0.2041   0.2068   0.2107
  0.2140   0.2203   0.2234   0.2297   0.2319   0.2335   0.2350   0.2368
  0.2397   0.2402   0.2434   0.2456   0.2472   0.2495   0.2543   0.2560
  0.2574   0.2583   0.2640   0.2658   0.2670   0.2700   0.2714   0.2730
  0.2750   0.2765   0.2786   0.2804   0.2829   0.2835   0.2852   0.2896
  0.2922   0.2943   0.2970   0.2977   0.2997   0.3013   0.3041   0.3053
  0.3090   0.3109   0.3121   0.3156   0.3165   0.3206   0.3208   0.3226
  0.3285   0.3304   0.3306   0.3331   0.3369   0.3386   0.3404   0.3425
  0.3449   0.3469   0.3491   0.3512   0.3562   0.3578   0.3592   0.3615
  0.3651   0.3689   0.3728   0.3764   0.3776   0.3792   0.3847   0.3860
  0.3870   0.3903   0.3913   0.3978   0.4000   0.4025   0.4085   0.4099
  0.4134   0.4163   0.4230   0.4244   0.4282   0.4325   0.4353   0.4380
  0.4424   0.4469   0.4497   0.4526   0.4584   0.4632   0.4653   0.4701
  0.4707   0.4772   0.4795   0.4830   0.4871   0.4937   0.4963   0.4984
  0.5018   0.5089   0.5092   0.5124   0.5156   0.5166   0.5240   0.5284
  0.5298   0.5330   0.5364   0.5423   0.5445   0.5454   0.5485   0.5528
  0.5551   0.5568   0.5620   0.5663   0.5674   0.5689   0.5713   0.5780
  0.5817   0.5833   0.5887   0.5902   0.5927   0.5949   0.6015   0.6058
  0.6081   0.6134   0.6149   0.6166   0.6214   0.6238   0.6295   0.6337
  0.6369   0.6411   0.6435   0.6526   0.6555   0.6585   0.6621   0.6636
  0.6664   0.6704   0.6724   0.6888   0.6923   0.6944   0.7058   0.7104
  0.7137   0.7178   0.7233   0.7260   0.7323   0.7343   0.7426   0.7477
  0.7547   0.7676   0.7753   0.7791   0.7818   0.7848   0.7887   0.7905
  0.7936   0.7950   0.8004   0.8041   0.8050   0.8094   0.8124   0.8187
  0.8214   0.8269   0.8305   0.8353   0.8438   0.8445   0.8499   0.8516
  0.8593   0.8638   0.8697   0.8758   0.8805   0.8839   0.8910   0.8922
  0.8976   0.9003   0.9032   0.9069   0.9138   0.9219   0.9245   0.9291
  0.9316   0.9349   0.9368   0.9458   0.9517   0.9558   0.9582   0.9630
  0.9668   0.9715   0.9737   0.9796   0.9891   0.9938   0.9973   0.9989
  1.0030   1.0052   1.0077   1.0103   1.0113   1.0173   1.0229   1.0265
  1.0296   1.0309   1.0345   1.0367   1.0405   1.0462   1.0506   1.0562
  1.0621   1.0692   1.0713   1.0728   1.0760   1.0782   1.0806   1.0842
  1.0868   1.0889   1.0928   1.1000   1.1064   1.1099   1.1121   1.1139
  1.1169   1.1211   1.1269   1.1299   1.1329   1.1381   1.1451   1.1476
  1.1523   1.1565   1.1609   1.1627   1.1663   1.1700   1.1766   1.1798
  1.1841   1.1857   1.1898   1.1968   1.1994   1.2021   1.2069   1.2120
  1.2147   1.2215   1.2246   1.2251   1.2304   1.2319   1.2333   1.2365
  1.2384   1.2422   1.2475   1.2528   1.2566   1.2592   1.2630   1.2662
  1.2711   1.2741   1.2750   1.2846   1.2912   1.2922   1.2970   1.2997
  1.3024   1.3081   1.3099   1.3105   1.3124   1.3170   1.3227   1.3249
  1.3321   1.3363   1.3393   1.3411   1.3472   1.3525   1.3583   1.3619
  1.3649   1.3660   1.3722   1.3782   1.3853   1.3894   1.3932   1.3980
  1.4069   1.4097   1.4149   1.4183   1.4187   1.4239   1.4255   1.4297
  1.4329   1.4410   1.4470   1.4519   1.4530   1.4588   1.4612   1.4639
  1.4654   1.4744   1.4771   1.4854   1.4867   1.4927   1.4993   1.5007
  1.5052   1.5106   1.5112   1.5207   1.5259   1.5301   1.5312   1.5341
  1.5434   1.5451   1.5474   1.5533   1.5551   1.5610   1.5666   1.5741
  1.5820   1.5860   1.5906   1.5950   1.6020   1.6035   1.6042   1.6101
  1.6155   1.6245   1.6268   1.6311   1.6356   1.6384   1.6405   1.6476
  1.6542   1.6667   1.6695   1.6727   1.6797   1.6823   1.6872   1.6929
  1.7012   1.7018   1.7045   1.7100   1.7199   1.7258   1.7272   1.7346
  1.7364   1.7471   1.7583   1.7622   1.7666   1.7691   1.7763   1.7764
  1.7842   1.7869   1.7941   1.8016   1.8064   1.8137   1.8213   1.8233
  1.8296   1.8326   1.8447   1.8539   1.8596   1.8662   1.8711   1.8719
  1.8824   1.8870   1.8935   1.9029   1.9066   1.9112   1.9186   1.9219
  1.9303   1.9334   1.9422   1.9488   1.9600   1.9685   1.9810   1.9833
  1.9863   1.9923   1.9998   2.0051   2.0116   2.0209   2.0268   2.0320
  2.0387   2.0508   2.0541   2.0618   2.0657   2.0694   2.0748   2.0885
  2.0913   2.0954   2.1044   2.1104   2.1127   2.1254   2.1322   2.1359
  2.1483   2.1512   2.1552   2.1606   2.1690   2.1735   2.1846   2.1870
  2.1971   2.2029   2.2142   2.2163   2.2233   2.2263   2.2345   2.2375
  2.2501   2.2611   2.2824   2.2916   2.3007   2.3185   2.3223   2.3282
  2.3384   2.3398   2.3543   2.3586   2.3694   2.3819   2.3876   2.3981
  2.4051   2.4162   2.4219   2.4318   2.4432   2.4454   2.4495   2.4599
  2.4645   2.4696   2.4814   2.4868   2.4905   2.4969   2.5046   2.5122
  2.5176   2.5211   2.5300   2.5345   2.5389   2.5442   2.5456   2.5613
  2.5634   2.5704   2.5717   2.5811   2.5839   2.5848   2.5919   2.5957
  2.6093   2.6131   2.6143   2.6200   2.6267   2.6310   2.6334   2.6374
  2.6434   2.6452   2.6506   2.6534   2.6577   2.6617   2.6674   2.6681
  2.6758   2.6785   2.6831   2.6840   2.6879   2.6905   2.7002   2.7019
  2.7057   2.7134   2.7191   2.7221   2.7256   2.7290   2.7357   2.7417
  2.7452   2.7532   2.7583   2.7596   2.7630   2.7689   2.7738   2.7780
  2.7812   2.7870   2.7914   2.8004   2.8016   2.8060   2.8152   2.8159
  2.8211   2.8246   2.8286   2.8339   2.8351   2.8437   2.8491   2.8551
  2.8596   2.8674   2.8698   2.8723   2.8761   2.8783   2.8897   2.8913
  2.8988   2.9007   2.9055   2.9124   2.9177   2.9217   2.9244   2.9293
  2.9340   2.9420   2.9483   2.9504   2.9534   2.9591   2.9617   2.9639
  2.9727   2.9776   2.9807   2.9844   2.9938   3.0004   3.0100   3.0137
  3.0140   3.0167   3.0262   3.0307   3.0353   3.0393   3.0410   3.0441
  3.0539   3.0547   3.0611   3.0621   3.0665   3.0708   3.0751   3.0815
  3.0851   3.0927   3.0984   3.1007   3.1054   3.1123   3.1173   3.1197
  3.1273   3.1329   3.1348   3.1396   3.1422   3.1460   3.1575   3.1608
  3.1638   3.1701   3.1805   3.1865   3.1885   3.1962   3.1968   3.2020
  3.2088   3.2160   3.2194   3.2263   3.2311   3.2342   3.2432   3.2461
  3.2560   3.2614   3.2672   3.2713   3.2742   3.2765   3.2813   3.2865
  3.2934   3.2982   3.3013   3.3039   3.3112   3.3155   3.3198   3.3259
  3.3372   3.3380   3.3400   3.3437   3.3534   3.3539   3.3630   3.3657
  3.3722   3.3813   3.3854   3.3900   3.3939   3.4000   3.4071   3.4139
  3.4168   3.4212   3.4264   3.4284   3.4346   3.4363   3.4407   3.4539
  3.4566   3.4653   3.4721   3.4729   3.4746   3.4776   3.4828   3.4940
  3.4975   3.5047   3.5080   3.5116   3.5157   3.5168   3.5292   3.5323
  3.5344   3.5429   3.5482   3.5492   3.5521   3.5581   3.5612   3.5706
  3.5745   3.5811   3.5896   3.5974   3.6031   3.6088   3.6159   3.6193
  3.6217   3.6287   3.6325   3.6371   3.6422   3.6431   3.6535   3.6552
  3.6609   3.6678   3.6726   3.6775   3.6857   3.6901   3.7003   3.7020
  3.7165   3.7194   3.7268   3.7313   3.7316   3.7445   3.7471   3.7574
  3.7616   3.7635   3.7823   3.7907   3.7924   3.7948   3.8129   3.8133
  3.8274   3.8309   3.8392   3.8476   3.8505   3.8645   3.8649   3.8674
  3.8742   3.8837   3.8930   3.8998   3.9139   3.9172   3.9193   3.9346
  3.9403   3.9492   3.9541   3.9635   3.9717   3.9767   3.9800   3.9927
  3.9952   4.0021   4.0082   4.0157   4.0199   4.0258   4.0331   4.0431
  4.0480   4.0568   4.0596   4.0672   4.0719   4.0834   4.0879   4.0931
  4.0998   4.1084   4.1162   4.1218   4.1268   4.1380   4.1456   4.1615
  4.1668   4.1715   4.1898   4.2015   4.2103   4.2145   4.2216   4.2305
  4.2359   4.2476   4.2493   4.2556   4.2669   4.2733   4.2896   4.3017
  4.3050   4.3161   4.3220   4.3435   4.3600   4.3732   4.3803   4.3845
  4.3948   4.3987   4.4045   4.4133   4.4376   4.4393   4.4660   4.4775
  4.4825   4.4921   4.5065   4.5196   4.5391   4.5450   4.5535   4.5557
  4.5640   4.5761   4.5851   4.5961   4.6264   4.6287   4.6341   4.6449
  4.6520   4.6567   4.6676   4.6831   4.6899   4.7020   4.7140   4.7166
  4.7250   4.7284   4.7308   4.7390   4.7530   4.7645   4.7882   4.8012
  4.8125   4.8174   4.8289   4.8353   4.8465   4.8598   4.8691   4.8961
  4.9051   4.9212   4.9353   4.9447   4.9697   4.9887   5.0014   5.0208
  5.0397   5.0532   5.0882   5.1001   5.1371   5.1736   5.2113   5.2493
  5.2621   5.2635   5.2994   5.3211   5.3241   5.3355   5.3555   5.3760
  5.3835   5.3928   5.4087   5.4292   5.4359   5.4449   5.4563   5.4604
  5.4765   5.4848   5.5006   5.5107   5.5233   5.5272   5.5507   5.5606
  5.5727   5.5802   5.6000   5.6060   5.6197   5.6369   5.6636   5.6711
  5.6914   5.7340   5.7591   5.7829   5.7948   5.8303   5.8452   5.8992
  5.9346   6.0489   6.0821   6.2855   6.3509   6.3669   6.3720   6.3862
  6.4006   6.4259   6.4360   6.4700   6.5178   6.5236   6.5258   6.5572
  6.5631   6.5843   6.6032   6.6189   6.6193   6.6267   6.6346   6.6423
  6.6465   6.6539   6.6563   6.6604   6.6723   6.7037   6.7258   6.7446
  6.7563   6.7626   6.7881   6.8094   6.8136   6.8268   6.8453   6.8546
  6.8608   6.8648   6.8733   6.8872   6.8928   6.8984   6.9256   6.9328
  6.9368   6.9461   6.9513   6.9614   6.9860   7.0044   7.0272   7.0661
  7.0835   7.0901   7.0990   7.1281   7.1633   7.1935   7.2096   7.2349
  7.2412   7.2524   7.2605   7.2619   7.2898   7.3150   7.3292   7.3675
  7.4317   7.4415   7.4454   7.4606   7.5992   7.6572   7.8520   7.9166
  7.9473   8.0604   8.4017   8.4278   8.4331   8.4413   8.4517   8.4595
  8.4723   8.4760   8.4863   8.4903   8.4944   8.5020   8.5072   8.5114
  8.5184   8.5248   8.5279   8.5349   8.5442   8.5544   8.5619   8.5727
  8.5798   8.5819   8.5942   8.6025   8.6068   8.6182   8.6191   8.6337
  8.6348   8.6476   8.6582   8.6716   8.6888   8.7050   8.7096   8.7216
  8.7264   8.7394   8.7453   8.7534   8.7709   8.7745   8.7792   8.7870
  8.7942   8.7992   8.8080   8.8112   8.8129   8.8159   8.8242   8.8294
  8.8361   8.8391   8.8479   8.8509   8.8546   8.8551   8.8664   8.8741
  8.8775   8.8796   8.8804   8.8838   8.8868   8.8880   8.8940   8.9004
  8.9013   8.9090   8.9110   8.9162   8.9206   8.9283   8.9309   8.9336
  8.9391   8.9458   8.9504   8.9547   8.9566   8.9621   8.9637   8.9659
  8.9686   8.9716   8.9754   8.9775   8.9780   8.9860   8.9919   8.9945
  8.9984   9.0003   9.0016   9.0063   9.0110   9.0150   9.0198   9.0206
  9.0272   9.0291   9.0326   9.0381   9.0388   9.0452   9.0509   9.0558
  9.0622   9.0632   9.0669   9.0690   9.0765   9.0786   9.0848   9.0856
  9.0905   9.0950   9.0978   9.1030   9.1036   9.1092   9.1123   9.1138
  9.1191   9.1268   9.1292   9.1362   9.1398   9.1429   9.1478   9.1493
  9.1526   9.1594   9.1606   9.1655   9.1696   9.1703   9.1733   9.1749
  9.1791   9.1834   9.1909   9.1959   9.1978   9.2034   9.2066   9.2108
  9.2174   9.2214   9.2254   9.2318   9.2363   9.2405   9.2457   9.2512
  9.2565   9.2607   9.2694   9.2755   9.2839   9.2887   9.2960   9.3047
  9.3087   9.3141   9.3234   9.3328   9.3522   9.3599   9.3721   9.3820
  9.3964   9.4031   9.4071   9.4277   9.4378   9.4401   9.4507   9.4563
  9.4678   9.4799   9.4922   9.5023   9.5042   9.5163   9.5228   9.5237
  9.5428   9.5542   9.5829   9.6019   9.6201   9.6368   9.6372   9.6488
  9.6636   9.6673   9.6959   9.7083   9.7164   9.7363  12.0362  12.1278
 12.4230  13.6798  15.1496  15.2672  15.3134  15.4021  15.4490  15.5625
 15.6743  15.7551  15.8328  15.9085  15.9542  16.0017  16.0880  16.2380
 16.3508  16.5143  16.6547  16.7657  16.8817  17.3089  17.6658  17.8087
 17.8745  18.3918  18.9216  19.0379  19.2814
 --------------------------------------------------------------
 
          Ground-State Mulliken Net Atomic Charges

     Atom                 Charge (a.u.)
  ----------------------------------------
      1 C                     0.920233
      2 F                    -0.394000
      3 F                    -0.405056
      4 C                     1.262969
      5 O                    -0.473111
      6 C                     1.350541
      7 C                     1.048734
      8 F                    -0.587741
      9 F                    -0.397538
     10 C                     0.955025
     11 F                    -0.418109
     12 F                    -0.561887
     13 F                    -0.401852
     14 F                    -0.401388
     15 F                    -0.532598
     16 F                    -0.456559
     17 O                    -0.433031
     18 C                     1.258876
     19 C                     0.990081
     20 C                     0.706970
     21 F                    -0.477317
     22 F                    -0.459585
     23 S                     1.992409
     24 F                    -0.498179
     25 F                    -0.483364
     26 F                    -0.415374
     27 F                    -0.429747
     28 F                    -0.421668
     29 O                    -0.940616
     30 O                    -0.942815
     31 O                    -0.954305
  ----------------------------------------
  Sum of atomic charges =    -1.000000

 -----------------------------------------------------------------
                    Cartesian Multipole Moments
 -----------------------------------------------------------------
    Charge (ESU x 10^10)
                -4.8032
    Dipole Moment (Debye)
         X      22.2673      Y      -1.8068      Z       0.2576
       Tot      22.3420
    Quadrupole Moments (Debye-Ang)
        XX    -315.5421     XY      10.9335     YY    -187.1236
        XZ      -2.2200     YZ       0.5410     ZZ    -186.2384
    Octopole Moments (Debye-Ang^2)
       XXX     820.5772    XXY     -71.6161    XYY      74.6294
       YYY     -20.6606    XXZ      19.1662    XYZ       0.3020
       YYZ       5.1080    XZZ      68.3593    YZZ      -2.3522
       ZZZ      -3.2292
    Hexadecapole Moments (Debye-Ang^3)
      XXXX  -18310.7434   XXXY     429.4325   XXYY   -2882.6011
      XYYY     101.0315   YYYY   -1904.8294   XXXZ    -111.9567
      XXYZ      10.8978   XYYZ     -30.6539   YYYZ       7.0215
      XXZZ   -2695.7285   XYZZ      17.7178   YYZZ    -490.6845
      XZZZ       7.6631   YZZZ       1.4435   ZZZZ   -1056.7372
 -----------------------------------------------------------------
 Calculating analytic gradient of the SCF energy
 ---- BrianQC J/K successfully initialized ---- 
 Gradient of SCF Energy
            1           2           3           4           5           6
    1  -0.0027858  -0.0028709  -0.0000058   0.0054509  -0.0002216  -0.0025424
    2  -0.0025375   0.0027924  -0.0034651  -0.0020318  -0.0017416  -0.0014049
    3  -0.0033280  -0.0006451   0.0022331   0.0040101   0.0044038   0.0030934
            7           8           9          10          11          12
    1   0.0037266   0.0001414   0.0031745  -0.0038526  -0.0000579  -0.0006192
    2  -0.0040231  -0.0002193  -0.0008219   0.0038105   0.0002301   0.0017227
    3  -0.0022564   0.0022425  -0.0025426   0.0007683   0.0040348  -0.0030637
           13          14          15          16          17          18
    1  -0.0038806   0.0027495   0.0014211   0.0000545  -0.0009139  -0.0018638
    2  -0.0018093   0.0028434  -0.0033153   0.0033428   0.0021688   0.0059282
    3  -0.0024461  -0.0008153  -0.0028496  -0.0000021  -0.0038685  -0.0028644
           19          20          21          22          23          24
    1   0.0003235  -0.0053091   0.0000395   0.0009743   0.0119633   0.0010712
    2   0.0061151  -0.0045440  -0.0044747  -0.0002250   0.0029531   0.0014228
    3   0.0000700   0.0030361  -0.0017664   0.0040383  -0.0020337   0.0020341
           25          26          27          28          29          30
    1   0.0011228  -0.0039626  -0.0014130   0.0038556  -0.0055154  -0.0009445
    2  -0.0013327  -0.0001621   0.0004137   0.0003235   0.0126464  -0.0117500
    3  -0.0022059   0.0031780  -0.0042014   0.0003368  -0.0042290  -0.0087458
           31
    1   0.0006902
    2  -0.0028553
    3   0.0143848
 Max gradient component =       1.438E-02
 RMS gradient           =       3.898E-03
 Gradient time:  CPU 176.86 s  wall 677.39 s

 *****************************************************
             Starting BFGS Algorithm
 *****************************************************
            LIBOPT3 RUN PARAMETERS

  Geometry Optimization Coordinates :
	Delocalized Natural Internal Coordinates

  Step Length Selection Method :
	Eigenvector Following Algorithm

  Step Length Limiter :
	Root-Mean-Square of Gradient

  Convergence Criteria :
	Max Gradient Component    	3.00000000e-04
	Max Displacement Component	1.20000000e-03
	Absolute Energy Difference	1.00000000e-06

  Initial Hessian :
	Approximate Hessian - Model Internal Coordinate

  Type of Verification :
	Verify with final updated Hessian
 *****************************************************

	OPTIMIZATION CYCLE:	1

 Scaling Magnitude of Eigenvalues
 	Minimum: -25.00000000	 Maximum: 25.00000000
 87 Hessian Eigenvalues to form next step
   0.00200000   0.00200000   0.00200000   0.00211425   0.00223721
   0.00317285   0.01272165   0.01648945   0.01711013   0.01942148
   0.04876930   0.05306750   0.05317953   0.06832530   0.06865155
   0.06919403   0.08020792   0.08081828   0.08203465   0.08393167
   0.08503962   0.08530526   0.08574908   0.08582890   0.08641446
   0.08778195   0.10035629   0.10087761   0.10835752   0.10943995
   0.13710245   0.17003456   0.17092693   0.18126670   0.18560913
   0.19557377   0.20240245   0.20979246   0.21063918   0.21223129
   0.21448870   0.25000000   0.25000000   0.25000000   0.25000000
   0.25000000   0.25000000   0.25000000   0.25000000   0.25000000
   0.25000000   0.25000000   0.25000000   0.25000000   0.25000000
   0.25000000   0.25000000   0.25000000   0.26368973   0.26555313
   0.27363668   0.27441738   0.28045652   0.42145292   0.46694556
   0.47505926   0.50498104   0.50698198   0.52395599   0.52537408
   0.52553115   0.54633032   0.54958166   0.55923795   0.56370733
   0.56454930   0.56475138   0.56820149   0.57227407   0.57664219
   0.57801009   0.58037149   0.58048382   0.58158656   0.83629422
   0.84094088   0.84471702

 Minimum Search taking a RFO step
 Searching for Lambda that minimizes along all modes
	Value of Lambda   -0.00483037
	Norm  of Stepsize  0.20422328
	RMS   of Stepsize  0.02189503

	Performing Iterative Coordinate Back-Transformation

	  Starting from Previous Position

	  iter:	0	rms: 1.5514804359e-01	maxdev: 4.0867857092e-01
	  iter:	1	rms: 8.7093440320e-03	maxdev: 2.3464812321e-02
	  iter:	2	rms: 1.8601776208e-05	maxdev: 5.9570053231e-05
	  iter:	3	rms: 1.2927583948e-10	maxdev: 7.6884718213e-10	 Success!

	Finished Iterative Coordinate Back-Transformation
 ----------------------------------------------------------------
             Standard Nuclear Orientation (Angstroms)
    I     Atom           X                Y                Z
 ----------------------------------------------------------------
    1      C       4.0378952433     1.5024678247     0.7405210024
    2      F       3.2448442712     2.5629166665     0.8917403931
    3      F       4.1768372048     0.9077855148     1.9274212479
    4      C       3.4119506724     0.5369842767    -0.3195732099
    5      O       2.1996357258     0.1044063043     0.2189095581
    6      C       0.9886586476     0.2048163767    -0.4561704523
    7      C      -0.1305273210    -0.4853523045     0.4131832796
    8      F       0.0480607023    -0.0395780716     1.6966411747
    9      F       5.2415641731     1.9384636544     0.3430955678
   10      C       4.3059708920    -0.7036318535    -0.6616438519
   11      F       4.5737058803    -1.4217106481     0.4337342006
   12      F       3.2770881142     1.2575798145    -1.4641097938
   13      F       3.6854672578    -1.4910210776    -1.5381643925
   14      F       5.4686463267    -0.3214881253    -1.2076790590
   15      F       1.0406245407    -0.3619661602    -1.6779985766
   16      F       0.6762669693     1.4964404750    -0.6314916810
   17      O      -1.2879691184    -0.0141729561    -0.1522775220
   18      C      -2.6129222182    -0.2999045865     0.2819364957
   19      C       0.0235190349    -2.0532859790     0.4698144588
   20      C      -3.5228329264     0.7947300006    -0.3439198926
   21      F      -2.9605771351    -1.5242187739    -0.1417691217
   22      F      -2.6746700468    -0.2844637542     1.6184354695
   23      S      -5.4012212784     0.5716849428    -0.1245138627
   24      F      -3.1327395781     1.9744077225     0.2082242510
   25      F      -3.2255436522     0.8519952016    -1.6694921578
   26      F      -0.7527948928    -2.5735555435     1.4190974344
   27      F      -0.2788750372    -2.6223134891    -0.6980181332
   28      F       1.2905076087    -2.3963406937     0.7716515077
   29      O      -5.9105888820     1.8505123003    -0.6373395459
   30      O      -5.6966708473    -0.6036467505    -0.9561414752
   31      O      -5.5394820124     0.3698045391     1.3259874187
 ----------------------------------------------------------------
 Molecular Point Group                 C1    NOp =  1
 Largest Abelian Subgroup              C1    NOp =  1
 Nuclear Repulsion Energy =        4338.35407799 hartrees
 There are      129 alpha and      129 beta electrons
 Applying Cartesian multipole field
    Component          Value
    ---------          -----
     (2,0,0)        1.00000E-12
     (0,2,0)        2.00000E-11
     (0,0,2)       -3.00000E-11
 Nucleus-field energy     = 1.8646190159e-08 hartrees
 Requested basis set is aug-cc-pVTZ
 There are 436 shells and 1430 basis functions
 A cutoff of  1.0D-12 yielded  65618 shell pairs
 There are    663352 function pairs (    925662 Cartesian)
 Smallest overlap matrix eigenvalue = 3.48E-06
 Guess MOs from SCF MO coefficient file

 -----------------------------------------------------------------------
  General SCF calculation program by
  Eric Jon Sundstrom, Paul Horn, Yuezhi Mao, Dmitri Zuev, Alec White,
  David Stuck, Shaama M.S., Shane Yost, Joonho Lee, David Small,
  Daniel Levine, Susi Lehtola, Hugh Burton, Evgeny Epifanovsky,
  Bang C. Huynh
 -----------------------------------------------------------------------
 Exchange:     0.2000 Hartree-Fock + 0.0800 Slater + 0.7200 B88
 Correlation:  0.1900 VWN1RPA + 0.8100 LYP
 Using SG-1 standard quadrature grid
 ---- BrianQC HCore successfully initialized ---- 
 ---- BrianQC J/K successfully initialized ---- 
 ---- BrianQC XC successfully initialized ---- 
BrianQC JK build time 32.0000000000 (s)
BrianQC XC build time 1.0000000000 (s)
 A restricted SCF calculation will be
 performed using DIIS
 SCF converges when DIIS error is below 1.0e-08
 ---------------------------------------
  Cycle       Energy         DIIS error
 ---------------------------------------
BrianQC JK build time 2.9e+01 (s)
BrianQC XC build time 1.0e+00 (s)
    1   -2777.4419646766      6.10e-04  
BrianQC JK build time 2.50e+01 (s)
BrianQC XC build time 0.00e+00 (s)
    2   -2777.5000672238      6.98e-05  
BrianQC JK build time 2.40e+01 (s)
BrianQC XC build time 1.00e+00 (s)
    3   -2777.4995927012      9.89e-05  
BrianQC JK build time 2.20e+01 (s)
BrianQC XC build time 1.00e+00 (s)
    4   -2777.5010067257      1.03e-05  
BrianQC JK build time 2.00e+01 (s)
BrianQC XC build time 1.00e+00 (s)
    5   -2777.5010177957      5.36e-06  
BrianQC JK build time 1.90e+01 (s)
BrianQC XC build time 1.00e+00 (s)
    6   -2777.5010218252      2.49e-06  
BrianQC JK build time 1.70e+01 (s)
BrianQC XC build time 0.00e+00 (s)
    7   -2777.5010228755      6.15e-07  
BrianQC JK build time 1.50e+01 (s)
BrianQC XC build time 1.00e+00 (s)
    8   -2777.5010229409      1.60e-07  
BrianQC JK build time 1.40e+01 (s)
BrianQC XC build time 1.00e+00 (s)
    9   -2777.5010229461      5.41e-08  
BrianQC JK build time 1.40e+01 (s)
BrianQC XC build time 1.00e+00 (s)
   10   -2777.5010229500      1.33e-08  
   11   -2777.5010229613      6.04e-09  Convergence criterion met
 ---------------------------------------
 SCF time:   CPU 936.38s  wall 255.00s 
 SCF   energy = -2777.50102296
 Total energy = -2777.50102296
 
 --------------------------------------------------------------
 
                    Orbital Energies (a.u.)
 --------------------------------------------------------------
 
 Alpha MOs
 -- Occupied --
-88.9496 -24.6990 -24.6989 -24.6985 -24.6979 -24.6976 -24.6955 -24.6951
-24.6742 -24.6719 -24.6713 -24.6704 -24.6675 -24.6530 -24.6298 -24.6277
-24.5982 -24.5981 -19.1685 -19.1280 -18.9632 -18.9624 -18.9620 -10.4156
-10.4141 -10.3887 -10.3824 -10.3496 -10.3331 -10.3173 -10.2498  -7.9677
 -5.9329  -5.9308  -5.9307  -1.3062  -1.2995  -1.2764  -1.2566  -1.2343
 -1.2139  -1.2130  -1.2129  -1.2106  -1.2101  -1.1940  -1.1847  -1.1840
 -1.1823  -1.1617  -1.1425  -1.1033  -1.0746  -1.0316  -0.9708  -0.8376
 -0.8369  -0.8042  -0.7567  -0.7028  -0.6864  -0.6827  -0.6437  -0.6208
 -0.6036  -0.5993  -0.5908  -0.5855  -0.5768  -0.5712  -0.5666  -0.5606
 -0.5579  -0.5546  -0.5532  -0.5356  -0.5311  -0.5207  -0.5015  -0.4952
 -0.4760  -0.4709  -0.4584  -0.4552  -0.4498  -0.4494  -0.4487  -0.4434
 -0.4408  -0.4301  -0.4281  -0.4217  -0.4210  -0.4192  -0.4181  -0.4124
 -0.4072  -0.4052  -0.4005  -0.3963  -0.3953  -0.3932  -0.3914  -0.3901
 -0.3871  -0.3769  -0.3729  -0.3704  -0.3671  -0.3638  -0.3630  -0.3531
 -0.3477  -0.3392  -0.3310  -0.3254  -0.3096  -0.3081  -0.3064  -0.3035
 -0.3026  -0.2818  -0.2779  -0.1966  -0.1964  -0.1673  -0.1654  -0.1569
 -0.1199
 -- Virtual --
  0.0512   0.0609   0.0691   0.0738   0.0876   0.0949   0.0955   0.1007
  0.1062   0.1066   0.1102   0.1211   0.1263   0.1305   0.1319   0.1350
  0.1368   0.1383   0.1481   0.1488   0.1547   0.1612   0.1641   0.1673
  0.1690   0.1703   0.1747   0.1759   0.1761   0.1796   0.1829   0.1859
  0.1874   0.1900   0.1942   0.1967   0.2014   0.2027   0.2073   0.2100
  0.2110   0.2204   0.2237   0.2304   0.2325   0.2336   0.2352   0.2375
  0.2412   0.2421   0.2445   0.2453   0.2482   0.2496   0.2527   0.2553
  0.2557   0.2574   0.2636   0.2645   0.2660   0.2688   0.2698   0.2726
  0.2747   0.2760   0.2782   0.2799   0.2819   0.2825   0.2848   0.2887
  0.2903   0.2937   0.2947   0.2963   0.2989   0.3009   0.3041   0.3048
  0.3086   0.3101   0.3108   0.3143   0.3157   0.3177   0.3205   0.3228
  0.3268   0.3287   0.3298   0.3308   0.3352   0.3370   0.3392   0.3407
  0.3423   0.3470   0.3484   0.3504   0.3542   0.3559   0.3574   0.3602
  0.3651   0.3657   0.3685   0.3747   0.3757   0.3791   0.3831   0.3840
  0.3873   0.3886   0.3899   0.3944   0.3968   0.4018   0.4037   0.4091
  0.4123   0.4145   0.4187   0.4221   0.4258   0.4321   0.4328   0.4368
  0.4399   0.4440   0.4470   0.4518   0.4533   0.4585   0.4645   0.4680
  0.4682   0.4747   0.4759   0.4811   0.4858   0.4917   0.4947   0.4959
  0.4999   0.5016   0.5043   0.5097   0.5101   0.5148   0.5184   0.5262
  0.5274   0.5315   0.5357   0.5396   0.5426   0.5459   0.5492   0.5509
  0.5544   0.5571   0.5591   0.5624   0.5652   0.5687   0.5703   0.5771
  0.5809   0.5813   0.5865   0.5871   0.5901   0.5951   0.6015   0.6034
  0.6060   0.6099   0.6132   0.6187   0.6199   0.6214   0.6275   0.6323
  0.6341   0.6387   0.6437   0.6505   0.6541   0.6568   0.6613   0.6633
  0.6656   0.6687   0.6697   0.6841   0.6895   0.6903   0.7057   0.7109
  0.7128   0.7147   0.7221   0.7236   0.7331   0.7354   0.7461   0.7509
  0.7547   0.7682   0.7739   0.7806   0.7823   0.7851   0.7875   0.7908
  0.7931   0.7950   0.7999   0.8042   0.8068   0.8074   0.8118   0.8160
  0.8201   0.8242   0.8287   0.8364   0.8406   0.8476   0.8488   0.8540
  0.8575   0.8598   0.8690   0.8754   0.8812   0.8837   0.8902   0.8914
  0.8956   0.9021   0.9041   0.9051   0.9124   0.9180   0.9208   0.9247
  0.9305   0.9335   0.9353   0.9406   0.9488   0.9536   0.9562   0.9584
  0.9633   0.9684   0.9745   0.9796   0.9855   0.9920   0.9953   0.9962
  1.0000   1.0018   1.0031   1.0092   1.0105   1.0150   1.0193   1.0241
  1.0251   1.0272   1.0338   1.0386   1.0404   1.0436   1.0478   1.0540
  1.0560   1.0603   1.0659   1.0672   1.0682   1.0779   1.0799   1.0807
  1.0826   1.0865   1.0887   1.0952   1.1032   1.1062   1.1073   1.1079
  1.1140   1.1167   1.1221   1.1247   1.1295   1.1353   1.1396   1.1438
  1.1489   1.1500   1.1521   1.1569   1.1602   1.1643   1.1683   1.1698
  1.1767   1.1811   1.1823   1.1892   1.1929   1.1957   1.2018   1.2055
  1.2107   1.2129   1.2150   1.2179   1.2194   1.2230   1.2305   1.2332
  1.2348   1.2363   1.2422   1.2472   1.2509   1.2559   1.2579   1.2640
  1.2644   1.2663   1.2719   1.2793   1.2864   1.2898   1.2916   1.2941
  1.2972   1.3007   1.3047   1.3053   1.3086   1.3151   1.3179   1.3240
  1.3265   1.3325   1.3375   1.3385   1.3416   1.3448   1.3505   1.3531
  1.3595   1.3602   1.3684   1.3702   1.3784   1.3824   1.3848   1.3895
  1.3986   1.4057   1.4129   1.4136   1.4169   1.4224   1.4230   1.4278
  1.4312   1.4386   1.4405   1.4429   1.4466   1.4523   1.4561   1.4574
  1.4636   1.4699   1.4770   1.4828   1.4876   1.4887   1.4937   1.4952
  1.5022   1.5029   1.5109   1.5158   1.5230   1.5257   1.5287   1.5299
  1.5407   1.5427   1.5462   1.5475   1.5534   1.5582   1.5612   1.5686
  1.5773   1.5886   1.5912   1.5934   1.5960   1.5986   1.6039   1.6071
  1.6096   1.6180   1.6201   1.6243   1.6311   1.6321   1.6431   1.6452
  1.6491   1.6616   1.6650   1.6676   1.6766   1.6774   1.6826   1.6846
  1.6915   1.6952   1.6978   1.7087   1.7107   1.7130   1.7229   1.7283
  1.7349   1.7387   1.7472   1.7501   1.7534   1.7631   1.7692   1.7760
  1.7789   1.7835   1.7872   1.7942   1.7989   1.8000   1.8132   1.8163
  1.8212   1.8294   1.8320   1.8408   1.8487   1.8546   1.8597   1.8632
  1.8713   1.8809   1.8861   1.8915   1.8989   1.9076   1.9103   1.9192
  1.9221   1.9288   1.9333   1.9440   1.9538   1.9602   1.9710   1.9762
  1.9838   1.9850   1.9922   1.9968   2.0139   2.0194   2.0221   2.0257
  2.0329   2.0380   2.0475   2.0540   2.0596   2.0650   2.0700   2.0773
  2.0811   2.0881   2.0974   2.1041   2.1088   2.1178   2.1244   2.1298
  2.1322   2.1428   2.1482   2.1550   2.1557   2.1662   2.1693   2.1768
  2.1889   2.1942   2.2103   2.2176   2.2188   2.2207   2.2298   2.2306
  2.2451   2.2558   2.2702   2.2871   2.2905   2.3080   2.3171   2.3208
  2.3326   2.3369   2.3504   2.3533   2.3662   2.3758   2.3793   2.3936
  2.4001   2.4119   2.4205   2.4290   2.4353   2.4419   2.4447   2.4582
  2.4651   2.4757   2.4802   2.4834   2.4846   2.4940   2.4951   2.5075
  2.5172   2.5221   2.5269   2.5291   2.5369   2.5392   2.5474   2.5562
  2.5607   2.5683   2.5692   2.5726   2.5787   2.5814   2.5887   2.5906
  2.6003   2.6085   2.6110   2.6145   2.6238   2.6258   2.6314   2.6323
  2.6383   2.6415   2.6446   2.6473   2.6514   2.6585   2.6614   2.6623
  2.6704   2.6753   2.6781   2.6787   2.6825   2.6851   2.6908   2.6963
  2.6976   2.7069   2.7112   2.7172   2.7204   2.7232   2.7310   2.7380
  2.7424   2.7445   2.7467   2.7522   2.7573   2.7628   2.7668   2.7706
  2.7721   2.7777   2.7805   2.7904   2.8001   2.8040   2.8058   2.8144
  2.8184   2.8207   2.8276   2.8322   2.8332   2.8422   2.8443   2.8480
  2.8543   2.8571   2.8627   2.8649   2.8688   2.8729   2.8831   2.8884
  2.8923   2.8990   2.9030   2.9049   2.9069   2.9147   2.9235   2.9282
  2.9308   2.9349   2.9370   2.9410   2.9509   2.9533   2.9556   2.9647
  2.9678   2.9696   2.9782   2.9806   2.9911   2.9935   3.0029   3.0042
  3.0087   3.0171   3.0202   3.0220   3.0292   3.0339   3.0369   3.0401
  3.0474   3.0506   3.0533   3.0558   3.0578   3.0675   3.0686   3.0763
  3.0789   3.0856   3.0873   3.0919   3.0992   3.0999   3.1015   3.1125
  3.1178   3.1230   3.1266   3.1374   3.1385   3.1397   3.1477   3.1504
  3.1540   3.1622   3.1722   3.1782   3.1799   3.1858   3.1951   3.1978
  3.2009   3.2014   3.2065   3.2149   3.2192   3.2233   3.2348   3.2392
  3.2405   3.2538   3.2578   3.2605   3.2659   3.2694   3.2723   3.2771
  3.2805   3.2873   3.2889   3.2929   3.3014   3.3070   3.3117   3.3136
  3.3219   3.3273   3.3307   3.3345   3.3386   3.3460   3.3559   3.3590
  3.3652   3.3669   3.3772   3.3780   3.3851   3.3878   3.3930   3.4015
  3.4069   3.4120   3.4184   3.4203   3.4273   3.4284   3.4361   3.4442
  3.4457   3.4500   3.4581   3.4600   3.4649   3.4728   3.4816   3.4841
  3.4855   3.4926   3.4972   3.4987   3.5011   3.5116   3.5204   3.5241
  3.5290   3.5327   3.5393   3.5408   3.5451   3.5490   3.5568   3.5618
  3.5689   3.5730   3.5815   3.5850   3.5902   3.6048   3.6080   3.6143
  3.6174   3.6235   3.6279   3.6312   3.6341   3.6384   3.6466   3.6541
  3.6594   3.6618   3.6674   3.6734   3.6778   3.6867   3.6928   3.6983
  3.7077   3.7090   3.7169   3.7262   3.7295   3.7399   3.7417   3.7476
  3.7517   3.7572   3.7746   3.7791   3.7839   3.7912   3.7975   3.8021
  3.8091   3.8147   3.8255   3.8388   3.8434   3.8489   3.8589   3.8655
  3.8688   3.8761   3.8801   3.8876   3.8926   3.8972   3.9081   3.9181
  3.9294   3.9349   3.9464   3.9551   3.9567   3.9627   3.9731   3.9822
  3.9830   3.9889   3.9940   4.0076   4.0135   4.0201   4.0245   4.0329
  4.0361   4.0467   4.0581   4.0637   4.0671   4.0689   4.0743   4.0796
  4.0860   4.0989   4.1093   4.1154   4.1257   4.1311   4.1359   4.1593
  4.1613   4.1679   4.1750   4.1920   4.1963   4.2057   4.2112   4.2166
  4.2227   4.2361   4.2430   4.2486   4.2574   4.2606   4.2808   4.2905
  4.2926   4.3069   4.3153   4.3314   4.3510   4.3653   4.3751   4.3798
  4.3862   4.3917   4.3967   4.4037   4.4206   4.4332   4.4592   4.4625
  4.4744   4.4850   4.4939   4.5045   4.5210   4.5330   4.5408   4.5475
  4.5535   4.5629   4.5789   4.5864   4.6056   4.6101   4.6210   4.6310
  4.6353   4.6538   4.6585   4.6766   4.6844   4.6890   4.6990   4.7090
  4.7135   4.7154   4.7242   4.7321   4.7388   4.7508   4.7778   4.7956
  4.8076   4.8155   4.8182   4.8259   4.8405   4.8443   4.8613   4.8879
  4.9047   4.9113   4.9308   4.9501   4.9630   4.9772   4.9866   5.0104
  5.0408   5.0448   5.0715   5.0833   5.1302   5.1584   5.1901   5.2233
  5.2378   5.2577   5.2941   5.3166   5.3306   5.3388   5.3444   5.3533
  5.3729   5.3863   5.3972   5.4117   5.4198   5.4409   5.4557   5.4563
  5.4724   5.4797   5.4828   5.4894   5.5064   5.5239   5.5387   5.5487
  5.5523   5.5740   5.5811   5.5947   5.6060   5.6121   5.6384   5.6609
  5.6661   5.7120   5.7307   5.7544   5.7929   5.8016   5.8430   5.8768
  5.9060   6.0239   6.0876   6.2795   6.3408   6.3633   6.3696   6.3857
  6.3950   6.4222   6.4326   6.4432   6.5134   6.5229   6.5267   6.5427
  6.5704   6.5771   6.5925   6.6091   6.6219   6.6234   6.6330   6.6380
  6.6413   6.6499   6.6556   6.6604   6.6697   6.7032   6.7213   6.7490
  6.7572   6.7677   6.7804   6.8071   6.8171   6.8272   6.8417   6.8498
  6.8541   6.8613   6.8799   6.8857   6.8962   6.8993   6.9306   6.9350
  6.9368   6.9495   6.9578   6.9615   6.9869   6.9993   7.0304   7.0644
  7.0777   7.0927   7.1045   7.1200   7.1555   7.1855   7.1931   7.2298
  7.2464   7.2490   7.2551   7.2604   7.2727   7.3145   7.3299   7.3813
  7.4255   7.4416   7.4574   7.4635   7.5920   7.6569   7.8428   7.9128
  7.9511   8.0612   8.4019   8.4278   8.4308   8.4432   8.4484   8.4553
  8.4695   8.4748   8.4798   8.4877   8.4926   8.4956   8.5030   8.5078
  8.5149   8.5219   8.5235   8.5308   8.5353   8.5468   8.5579   8.5656
  8.5699   8.5803   8.5885   8.5994   8.6080   8.6140   8.6148   8.6303
  8.6366   8.6396   8.6500   8.6715   8.6836   8.6960   8.6998   8.7043
  8.7216   8.7311   8.7383   8.7544   8.7591   8.7738   8.7834   8.7881
  8.7965   8.8014   8.8032   8.8083   8.8131   8.8187   8.8239   8.8285
  8.8345   8.8366   8.8422   8.8450   8.8532   8.8558   8.8602   8.8703
  8.8716   8.8727   8.8786   8.8839   8.8867   8.8871   8.8920   8.8941
  8.8956   8.8997   8.9022   8.9067   8.9140   8.9200   8.9236   8.9266
  8.9322   8.9346   8.9419   8.9462   8.9473   8.9503   8.9567   8.9593
  8.9625   8.9638   8.9675   8.9711   8.9746   8.9793   8.9829   8.9869
  8.9898   8.9917   8.9971   9.0000   9.0044   9.0057   9.0108   9.0155
  9.0212   9.0239   9.0263   9.0293   9.0355   9.0386   9.0407   9.0432
  9.0482   9.0557   9.0608   9.0624   9.0653   9.0695   9.0743   9.0788
  9.0801   9.0852   9.0931   9.0940   9.0958   9.1030   9.1043   9.1089
  9.1111   9.1133   9.1162   9.1221   9.1293   9.1352   9.1404   9.1460
  9.1471   9.1510   9.1551   9.1604   9.1622   9.1660   9.1668   9.1725
  9.1767   9.1803   9.1826   9.1865   9.1888   9.1938   9.1983   9.2053
  9.2069   9.2127   9.2178   9.2224   9.2261   9.2284   9.2331   9.2351
  9.2468   9.2524   9.2547   9.2572   9.2751   9.2801   9.2928   9.2948
  9.3021   9.3118   9.3174   9.3240   9.3467   9.3557   9.3634   9.3713
  9.3894   9.3956   9.3983   9.4123   9.4303   9.4323   9.4388   9.4517
  9.4521   9.4695   9.4802   9.4873   9.4921   9.4982   9.5031   9.5082
  9.5271   9.5423   9.5669   9.5805   9.6182   9.6212   9.6409   9.6439
  9.6586   9.6678   9.6914   9.6975   9.7145   9.7314  12.0718  12.1563
 12.4366  13.7121  15.0434  15.2446  15.2932  15.3842  15.4696  15.5227
 15.5749  15.6940  15.7213  15.7932  15.8612  15.9029  15.9546  16.1668
 16.2659  16.3901  16.5181  16.6376  16.7218  17.2208  17.4689  17.7123
 17.7791  18.2692  18.8564  18.9224  19.1961
 --------------------------------------------------------------
 
          Ground-State Mulliken Net Atomic Charges

     Atom                 Charge (a.u.)
  ----------------------------------------
      1 C                     0.954293
      2 F                    -0.393793
      3 F                    -0.403910
      4 C                     1.195770
      5 O                    -0.467952
      6 C                     1.342145
      7 C                     1.034852
      8 F                    -0.592315
      9 F                    -0.394369
     10 C                     0.952086
     11 F                    -0.411218
     12 F                    -0.552541
     13 F                    -0.398097
     14 F                    -0.398331
     15 F                    -0.517347
     16 F                    -0.458513
     17 O                    -0.393030
     18 C                     1.191888
     19 C                     0.973643
     20 C                     0.707190
     21 F                    -0.467437
     22 F                    -0.448289
     23 S                     2.022218
     24 F                    -0.500273
     25 F                    -0.484910
     26 F                    -0.410260
     27 F                    -0.420174
     28 F                    -0.409894
     29 O                    -0.943743
     30 O                    -0.948835
     31 O                    -0.958855
  ----------------------------------------
  Sum of atomic charges =    -1.000000

 -----------------------------------------------------------------
                    Cartesian Multipole Moments
 -----------------------------------------------------------------
    Charge (ESU x 10^10)
                -4.8032
    Dipole Moment (Debye)
         X      22.2653      Y      -2.4680      Z       0.4513
       Tot      22.4063
    Quadrupole Moments (Debye-Ang)
        XX    -316.0021     XY      14.2052     YY    -188.0771
        XZ      -3.5708     YZ       0.7569     ZZ    -186.2774
    Octopole Moments (Debye-Ang^2)
       XXX     820.7158    XXY     -89.4210    XYY      76.8565
       YYY     -26.6706    XXZ      24.9325    XYZ      -1.2384
       YYZ       5.9419    XZZ      68.3762    YZZ      -5.0019
       ZZZ      -1.0369
    Hexadecapole Moments (Debye-Ang^3)
      XXXX  -18305.6749   XXXY     555.8066   XXYY   -2918.7622
      XYYY     176.3309   YYYY   -2012.7362   XXXZ    -133.6911
      XXYZ      20.8990   XYYZ     -33.2941   YYYZ      24.9270
      XXZZ   -2706.4944   XYZZ      46.2407   YYZZ    -515.3135
      XZZZ      12.4639   YZZZ      15.2206   ZZZZ   -1097.9912
 -----------------------------------------------------------------
 Calculating analytic gradient of the SCF energy
 ---- BrianQC J/K successfully initialized ---- 
 Gradient of SCF Energy
            1           2           3           4           5           6
    1  -0.0020274   0.0012563   0.0000560   0.0034318  -0.0016296  -0.0018158
    2  -0.0026488   0.0002005   0.0015748  -0.0026065   0.0036545  -0.0031417
    3  -0.0032454   0.0011346   0.0008300   0.0000454   0.0032790   0.0024950
            7           8           9          10          11          12
    1   0.0020040   0.0008179   0.0000268  -0.0023326   0.0008615  -0.0000169
    2  -0.0037756   0.0016872   0.0013894   0.0033028  -0.0015158   0.0021937
    3  -0.0005188   0.0003751   0.0010939   0.0003167  -0.0007779  -0.0007411
           13          14          15          16          17          18
    1   0.0026230   0.0007088  -0.0015728  -0.0003026  -0.0005103  -0.0007423
    2  -0.0008249  -0.0021570   0.0010142  -0.0001472   0.0045500   0.0010226
    3   0.0004916  -0.0010371  -0.0017926  -0.0006717  -0.0020731  -0.0002215
           19          20          21          22          23          24
    1  -0.0004679  -0.0031655  -0.0018562  -0.0011966   0.0085298   0.0003629
    2   0.0026954  -0.0027216  -0.0004424   0.0006809   0.0015290   0.0007194
    3  -0.0002201   0.0017530  -0.0009746   0.0013654  -0.0013608  -0.0004640
           25          26          27          28          29          30
    1   0.0007466   0.0030978   0.0011221  -0.0009930  -0.0030964  -0.0022249
    2   0.0007121  -0.0021244  -0.0018979  -0.0021605   0.0038038  -0.0039032
    3  -0.0005396   0.0001200   0.0000721   0.0004014  -0.0013858  -0.0026931
           31
    1  -0.0016947
    2  -0.0006628
    3   0.0049441
 Max gradient component =       8.530E-03
 RMS gradient           =       2.107E-03
 Gradient time:  CPU 132.46 s  wall 638.49 s

     Step 1	:
        Energy is -2777.5010229613
                            Maximum         Tolerance       Converged?
         Gradient           8.88391217e-03	3.00000000e-04	false
         Displacement       7.96480167e-02	1.20000000e-03	false
         Energy change      1.48789685e-03	1.00000000e-06	false


	OPTIMIZATION CYCLE:	2

 Scaling Magnitude of Eigenvalues
 	Minimum: -25.00000000	 Maximum: 25.00000000
 87 Hessian Eigenvalues to form next step
   0.00197684   0.00200000   0.00200409   0.00211545   0.00223727
   0.00317606   0.01271889   0.01645908   0.01676889   0.01981213
   0.04876378   0.05309545   0.05328734   0.06820795   0.06900999
   0.06919607   0.08075185   0.08096902   0.08203286   0.08395862
   0.08505997   0.08562991   0.08578007   0.08635524   0.08716669
   0.08779374   0.10044766   0.10770437   0.10943841   0.10959890
   0.13646645   0.17003237   0.17178708   0.18120821   0.18748863
   0.19450397   0.19604971   0.20990624   0.21059518   0.21145962
   0.21431529   0.24047832   0.25000000   0.25000000   0.25000000
   0.25000000   0.25000000   0.25000000   0.25000000   0.25000000
   0.25000000   0.25000000   0.25000000   0.25000000   0.25000000
   0.25000000   0.25000000   0.25996632   0.26426546   0.27064464
   0.27372146   0.27949028   0.36582027   0.42988983   0.47127256
   0.48230274   0.50239263   0.51310486   0.52405103   0.52545898
   0.52781263   0.54480898   0.55130766   0.55654083   0.56354693
   0.56418188   0.56478365   0.56702240   0.57209145   0.57657049
   0.57753406   0.58043248   0.58100238   0.59076738   0.76153533
   0.83831749   0.84319125

 Minimum Search taking a RFO step
 Searching for Lambda that minimizes along all modes
	Value of Lambda   -0.00167721
	Norm  of Stepsize  0.22670442
	RMS   of Stepsize  0.02430527

	Performing Iterative Coordinate Back-Transformation

	  Starting from Previous Position

	  iter:	0	rms: 9.5556715519e-02	maxdev: 2.2480064215e-01
	  iter:	1	rms: 2.6173603201e-03	maxdev: 8.5774338408e-03
	  iter:	2	rms: 1.3915403676e-06	maxdev: 4.6493160087e-06
	  iter:	3	rms: 1.2160532542e-12	maxdev: 7.1859148072e-12	 Success!

	Finished Iterative Coordinate Back-Transformation
 ----------------------------------------------------------------
             Standard Nuclear Orientation (Angstroms)
    I     Atom           X                Y                Z
 ----------------------------------------------------------------
    1      C       4.0902633920     1.4361916924     0.7736137057
    2      F       3.3268413512     2.5107578009     0.9670353105
    3      F       4.2175160104     0.7880019925     1.9325875723
    4      C       3.4293067675     0.5294766253    -0.3210935428
    5      O       2.2123062614     0.1045340128     0.2043657157
    6      C       1.0016964448     0.2632196436    -0.4553914236
    7      C      -0.1318626574    -0.4072285199     0.4187213565
    8      F       0.0255449484     0.0565109849     1.6971880395
    9      F       5.3034566008     1.8476795717     0.3821125384
   10      C       4.2863017423    -0.7222761855    -0.7142168518
   11      F       4.5191811811    -1.4955222365     0.3499257510
   12      F       3.3083361394     1.2885623376    -1.4394008064
   13      F       3.6409668578    -1.4407336938    -1.6306620903
   14      F       5.4627225433    -0.3454734708    -1.2311721751
   15      F       1.0300329401    -0.2887018858    -1.6828348852
   16      F       0.7319909491     1.5669243272    -0.6045726255
   17      O      -1.2881986615     0.0309817022    -0.1630885882
   18      C      -2.6013172342    -0.2871132236     0.2734156236
   19      C       0.0060735458    -1.9727743282     0.5101928051
   20      C      -3.5489970390     0.7680929446    -0.3701101944
   21      F      -2.9014050795    -1.5302460755    -0.1250892076
   22      F      -2.6579076271    -0.2534921907     1.6079283646
   23      S      -5.4241853224     0.4883383661    -0.1277994915
   24      F      -3.1940893774     1.9695747937     0.1557271648
   25      F      -3.2679813937     0.8062043037    -1.6988035022
   26      F      -0.8297545769    -2.4577247699     1.4264584482
   27      F      -0.2519194113    -2.5538046975    -0.6610240267
   28      F       1.2549571288    -2.3157859197     0.8776172150
   29      O      -5.9662966859     1.7375588610    -0.6667097820
   30      O      -5.6814982249    -0.7111418369    -0.9289804377
   31      O      -5.5382531948     0.3177539214     1.3241507524
 ----------------------------------------------------------------
 Molecular Point Group                 C1    NOp =  1
 Largest Abelian Subgroup              C1    NOp =  1
 Nuclear Repulsion Energy =        4344.30218036 hartrees
 There are      129 alpha and      129 beta electrons
 Applying Cartesian multipole field
    Component          Value
    ---------          -----
     (2,0,0)        1.00000E-12
     (0,2,0)        2.00000E-11
     (0,0,2)       -3.00000E-11
 Nucleus-field energy     = 1.6331895895e-08 hartrees
 Requested basis set is aug-cc-pVTZ
 There are 436 shells and 1430 basis functions
 A cutoff of  1.0D-12 yielded  65651 shell pairs
 There are    664275 function pairs (    927089 Cartesian)
 Smallest overlap matrix eigenvalue = 3.49E-06
 Guess MOs from SCF MO coefficient file

 -----------------------------------------------------------------------
  General SCF calculation program by
  Eric Jon Sundstrom, Paul Horn, Yuezhi Mao, Dmitri Zuev, Alec White,
  David Stuck, Shaama M.S., Shane Yost, Joonho Lee, David Small,
  Daniel Levine, Susi Lehtola, Hugh Burton, Evgeny Epifanovsky,
  Bang C. Huynh
 -----------------------------------------------------------------------
 Exchange:     0.2000 Hartree-Fock + 0.0800 Slater + 0.7200 B88
 Correlation:  0.1900 VWN1RPA + 0.8100 LYP
 Using SG-1 standard quadrature grid
 ---- BrianQC HCore successfully initialized ---- 
 ---- BrianQC J/K successfully initialized ---- 
 ---- BrianQC XC successfully initialized ---- 
BrianQC JK build time 32.0000000000 (s)
BrianQC XC build time 1.0000000000 (s)
 A restricted SCF calculation will be
 performed using DIIS
 SCF converges when DIIS error is below 1.0e-08
 ---------------------------------------
  Cycle       Energy         DIIS error
 ---------------------------------------
BrianQC JK build time 2.9e+01 (s)
BrianQC XC build time 1.0e+00 (s)
    1   -2777.4788207882      3.65e-04  
BrianQC JK build time 2.50e+01 (s)
BrianQC XC build time 1.00e+00 (s)
    2   -2777.5014359641      4.06e-05  
BrianQC JK build time 2.40e+01 (s)
BrianQC XC build time 1.00e+00 (s)
    3   -2777.5012803868      5.70e-05  
BrianQC JK build time 2.20e+01 (s)
BrianQC XC build time 1.00e+00 (s)
    4   -2777.5017587750      7.59e-06  
BrianQC JK build time 2.00e+01 (s)
BrianQC XC build time 1.00e+00 (s)
    5   -2777.5017634264      5.38e-06  
BrianQC JK build time 1.90e+01 (s)
BrianQC XC build time 1.00e+00 (s)
    6   -2777.5017682168      1.53e-06  
BrianQC JK build time 1.70e+01 (s)
BrianQC XC build time 1.00e+00 (s)
    7   -2777.5017685240      3.80e-07  
BrianQC JK build time 1.50e+01 (s)
BrianQC XC build time 0.00e+00 (s)
    8   -2777.5017685376      1.23e-07  
BrianQC JK build time 1.40e+01 (s)
BrianQC XC build time 1.00e+00 (s)
    9   -2777.5017685498      2.76e-08  
   10   -2777.5017685469      7.64e-09  Convergence criterion met
 ---------------------------------------
 SCF time:   CPU 840.58s  wall 235.00s 
 SCF   energy = -2777.50176855
 Total energy = -2777.50176855
 
 --------------------------------------------------------------
 
                    Orbital Energies (a.u.)
 --------------------------------------------------------------
 
 Alpha MOs
 -- Occupied --
-88.9484 -24.6991 -24.6988 -24.6988 -24.6981 -24.6979 -24.6962 -24.6948
-24.6736 -24.6707 -24.6700 -24.6688 -24.6682 -24.6517 -24.6282 -24.6263
-24.5973 -24.5973 -19.1675 -19.1266 -18.9628 -18.9622 -18.9619 -10.4147
-10.4141 -10.3862 -10.3822 -10.3480 -10.3312 -10.3147 -10.2478  -7.9667
 -5.9319  -5.9298  -5.9298  -1.3064  -1.2997  -1.2749  -1.2571  -1.2347
 -1.2146  -1.2133  -1.2133  -1.2114  -1.2108  -1.1933  -1.1837  -1.1834
 -1.1826  -1.1610  -1.1418  -1.1027  -1.0753  -1.0326  -0.9731  -0.8395
 -0.8389  -0.8034  -0.7549  -0.7024  -0.6861  -0.6810  -0.6431  -0.6198
 -0.6034  -0.5994  -0.5910  -0.5846  -0.5770  -0.5710  -0.5670  -0.5601
 -0.5578  -0.5543  -0.5523  -0.5362  -0.5307  -0.5200  -0.5005  -0.4943
 -0.4745  -0.4709  -0.4586  -0.4555  -0.4496  -0.4492  -0.4487  -0.4434
 -0.4406  -0.4289  -0.4277  -0.4222  -0.4211  -0.4190  -0.4177  -0.4117
 -0.4070  -0.4052  -0.4004  -0.3969  -0.3954  -0.3932  -0.3916  -0.3902
 -0.3869  -0.3767  -0.3725  -0.3693  -0.3660  -0.3627  -0.3612  -0.3517
 -0.3465  -0.3396  -0.3303  -0.3250  -0.3093  -0.3081  -0.3049  -0.3032
 -0.3022  -0.2799  -0.2770  -0.1976  -0.1974  -0.1681  -0.1665  -0.1555
 -0.1204
 -- Virtual --
  0.0515   0.0620   0.0690   0.0757   0.0891   0.0959   0.0966   0.1015
  0.1064   0.1068   0.1115   0.1220   0.1277   0.1309   0.1335   0.1359
  0.1371   0.1384   0.1481   0.1492   0.1549   0.1621   0.1647   0.1676
  0.1699   0.1723   0.1748   0.1770   0.1781   0.1801   0.1840   0.1858
  0.1882   0.1905   0.1943   0.1974   0.2020   0.2031   0.2068   0.2111
  0.2137   0.2202   0.2242   0.2307   0.2321   0.2340   0.2359   0.2382
  0.2403   0.2423   0.2449   0.2461   0.2481   0.2502   0.2526   0.2558
  0.2566   0.2590   0.2642   0.2651   0.2659   0.2694   0.2708   0.2730
  0.2749   0.2770   0.2796   0.2808   0.2822   0.2834   0.2857   0.2894
  0.2904   0.2957   0.2966   0.2975   0.2992   0.3015   0.3047   0.3053
  0.3091   0.3101   0.3121   0.3151   0.3176   0.3191   0.3215   0.3242
  0.3271   0.3295   0.3321   0.3327   0.3352   0.3365   0.3392   0.3408
  0.3432   0.3475   0.3495   0.3510   0.3542   0.3568   0.3579   0.3615
  0.3649   0.3677   0.3688   0.3748   0.3773   0.3789   0.3833   0.3844
  0.3872   0.3896   0.3908   0.3952   0.3990   0.4022   0.4072   0.4091
  0.4138   0.4148   0.4197   0.4236   0.4273   0.4315   0.4334   0.4370
  0.4390   0.4457   0.4500   0.4520   0.4540   0.4611   0.4651   0.4675
  0.4717   0.4766   0.4773   0.4818   0.4869   0.4926   0.4944   0.4962
  0.5016   0.5019   0.5069   0.5118   0.5126   0.5162   0.5191   0.5264
  0.5283   0.5333   0.5362   0.5402   0.5440   0.5445   0.5499   0.5509
  0.5558   0.5575   0.5610   0.5626   0.5666   0.5687   0.5706   0.5767
  0.5804   0.5825   0.5880   0.5899   0.5913   0.5967   0.5985   0.6050
  0.6065   0.6110   0.6148   0.6168   0.6211   0.6226   0.6279   0.6326
  0.6345   0.6391   0.6444   0.6500   0.6544   0.6571   0.6619   0.6634
  0.6670   0.6695   0.6710   0.6848   0.6879   0.6920   0.7054   0.7080
  0.7119   0.7170   0.7200   0.7229   0.7350   0.7370   0.7422   0.7508
  0.7543   0.7676   0.7761   0.7788   0.7836   0.7859   0.7889   0.7903
  0.7937   0.7966   0.8005   0.8036   0.8070   0.8084   0.8120   0.8163
  0.8201   0.8254   0.8281   0.8356   0.8396   0.8469   0.8487   0.8544
  0.8589   0.8617   0.8671   0.8745   0.8816   0.8837   0.8900   0.8919
  0.8988   0.9018   0.9036   0.9048   0.9155   0.9177   0.9247   0.9258
  0.9280   0.9346   0.9353   0.9407   0.9504   0.9541   0.9570   0.9584
  0.9658   0.9686   0.9758   0.9800   0.9856   0.9929   0.9971   0.9988
  1.0013   1.0032   1.0044   1.0088   1.0105   1.0162   1.0214   1.0261
  1.0266   1.0311   1.0333   1.0390   1.0421   1.0427   1.0503   1.0561
  1.0585   1.0638   1.0691   1.0709   1.0718   1.0772   1.0806   1.0826
  1.0857   1.0880   1.0915   1.0970   1.1030   1.1073   1.1080   1.1111
  1.1145   1.1166   1.1237   1.1262   1.1352   1.1372   1.1439   1.1475
  1.1500   1.1532   1.1595   1.1608   1.1635   1.1676   1.1715   1.1752
  1.1783   1.1812   1.1886   1.1905   1.1956   1.1990   1.2036   1.2054
  1.2116   1.2137   1.2187   1.2204   1.2214   1.2252   1.2314   1.2358
  1.2368   1.2402   1.2435   1.2488   1.2518   1.2605   1.2634   1.2653
  1.2665   1.2718   1.2725   1.2820   1.2850   1.2904   1.2933   1.2956
  1.2981   1.2997   1.3025   1.3040   1.3082   1.3146   1.3170   1.3244
  1.3308   1.3334   1.3370   1.3412   1.3441   1.3500   1.3510   1.3562
  1.3603   1.3642   1.3697   1.3727   1.3811   1.3852   1.3875   1.3915
  1.3986   1.4075   1.4118   1.4173   1.4179   1.4224   1.4254   1.4287
  1.4299   1.4370   1.4406   1.4442   1.4495   1.4501   1.4580   1.4585
  1.4645   1.4701   1.4782   1.4837   1.4861   1.4900   1.4942   1.4968
  1.5026   1.5049   1.5111   1.5168   1.5227   1.5243   1.5297   1.5319
  1.5393   1.5431   1.5466   1.5501   1.5546   1.5587   1.5630   1.5680
  1.5815   1.5860   1.5918   1.5930   1.5954   1.5980   1.6024   1.6069
  1.6133   1.6200   1.6233   1.6266   1.6294   1.6332   1.6414   1.6436
  1.6502   1.6624   1.6666   1.6718   1.6762   1.6796   1.6865   1.6876
  1.6940   1.6958   1.6993   1.7075   1.7141   1.7174   1.7234   1.7300
  1.7359   1.7419   1.7495   1.7546   1.7597   1.7615   1.7714   1.7774
  1.7826   1.7877   1.7935   1.7995   1.8036   1.8062   1.8090   1.8164
  1.8239   1.8310   1.8407   1.8416   1.8493   1.8544   1.8629   1.8662
  1.8743   1.8796   1.8840   1.8961   1.8982   1.9091   1.9143   1.9221
  1.9265   1.9307   1.9326   1.9468   1.9549   1.9592   1.9730   1.9791
  1.9852   1.9869   1.9924   2.0053   2.0102   2.0158   2.0218   2.0274
  2.0351   2.0411   2.0533   2.0554   2.0626   2.0658   2.0696   2.0808
  2.0836   2.0892   2.0988   2.1055   2.1119   2.1217   2.1282   2.1292
  2.1387   2.1470   2.1482   2.1561   2.1591   2.1687   2.1741   2.1810
  2.1893   2.1975   2.2124   2.2166   2.2216   2.2264   2.2305   2.2324
  2.2461   2.2562   2.2728   2.2879   2.2920   2.3107   2.3189   2.3230
  2.3337   2.3399   2.3514   2.3556   2.3672   2.3767   2.3833   2.3967
  2.3988   2.4149   2.4214   2.4316   2.4372   2.4443   2.4471   2.4576
  2.4645   2.4769   2.4802   2.4844   2.4879   2.4957   2.4969   2.5111
  2.5187   2.5231   2.5271   2.5273   2.5408   2.5437   2.5486   2.5555
  2.5631   2.5675   2.5703   2.5754   2.5816   2.5841   2.5890   2.5984
  2.6024   2.6119   2.6137   2.6196   2.6236   2.6267   2.6340   2.6378
  2.6397   2.6443   2.6480   2.6508   2.6534   2.6619   2.6627   2.6655
  2.6718   2.6793   2.6798   2.6834   2.6868   2.6887   2.6938   2.6960
  2.7002   2.7101   2.7120   2.7182   2.7228   2.7274   2.7326   2.7386
  2.7433   2.7437   2.7484   2.7545   2.7588   2.7640   2.7673   2.7744
  2.7789   2.7817   2.7852   2.7926   2.8008   2.8055   2.8098   2.8122
  2.8191   2.8233   2.8303   2.8343   2.8357   2.8415   2.8461   2.8488
  2.8500   2.8576   2.8661   2.8676   2.8701   2.8769   2.8848   2.8870
  2.8921   2.9019   2.9035   2.9069   2.9074   2.9146   2.9225   2.9287
  2.9329   2.9351   2.9362   2.9410   2.9523   2.9551   2.9582   2.9655
  2.9728   2.9757   2.9807   2.9851   2.9923   2.9954   3.0013   3.0056
  3.0127   3.0174   3.0197   3.0251   3.0329   3.0336   3.0384   3.0434
  3.0502   3.0511   3.0547   3.0570   3.0645   3.0682   3.0720   3.0738
  3.0839   3.0879   3.0932   3.0948   3.0998   3.1029   3.1067   3.1157
  3.1233   3.1245   3.1290   3.1361   3.1402   3.1448   3.1504   3.1573
  3.1615   3.1650   3.1737   3.1809   3.1874   3.1884   3.1985   3.2001
  3.2016   3.2072   3.2131   3.2144   3.2224   3.2264   3.2378   3.2430
  3.2458   3.2551   3.2601   3.2636   3.2665   3.2725   3.2753   3.2798
  3.2830   3.2868   3.2925   3.2965   3.3069   3.3093   3.3121   3.3183
  3.3295   3.3314   3.3362   3.3416   3.3436   3.3502   3.3549   3.3630
  3.3669   3.3687   3.3790   3.3874   3.3895   3.3913   3.3920   3.4046
  3.4109   3.4185   3.4241   3.4264   3.4314   3.4364   3.4418   3.4464
  3.4508   3.4525   3.4599   3.4676   3.4709   3.4755   3.4844   3.4891
  3.4908   3.4962   3.4990   3.5056   3.5082   3.5175   3.5224   3.5284
  3.5327   3.5344   3.5398   3.5446   3.5458   3.5574   3.5622   3.5665
  3.5730   3.5757   3.5855   3.5904   3.6011   3.6049   3.6070   3.6116
  3.6177   3.6276   3.6316   3.6343   3.6375   3.6417   3.6504   3.6600
[...]
   16      F       0.7173815070     1.5524168004    -0.6038226851
   17      O      -1.2823005291     0.0191434519    -0.1680074281
   18      C      -2.5999052865    -0.2979263956     0.2560609353
   19      C       0.0153243582    -1.9870820651     0.5038948678
   20      C      -3.5342271227     0.7799534612    -0.3632268051
   21      F      -2.9148808155    -1.5260836734    -0.1772186013
   22      F      -2.6651379276    -0.2935103489     1.5910137725
   23      S      -5.4124828344     0.5114650116    -0.1181424106
   24      F      -3.1629106438     1.9650778511     0.1878307761
   25      F      -3.2551963601     0.8362689166    -1.6914264759
   26      F      -0.8157923790    -2.4785459917     1.4216510740
   27      F      -0.2403261211    -2.5621891566    -0.6714564611
   28      F       1.2660948594    -2.3267727231     0.8674319317
   29      O      -5.9444967689     1.7725728458    -0.6378895080
   30      O      -5.6790342502    -0.6750159579    -0.9344233165
   31      O      -5.5214681424     0.3210473019     1.3310830423
 ----------------------------------------------------------------
 Molecular Point Group                 C1    NOp =  1
 Largest Abelian Subgroup              C1    NOp =  1
 Nuclear Repulsion Energy =        4349.34854234 hartrees
 There are      129 alpha and      129 beta electrons
 Applying Cartesian multipole field
    Component          Value
    ---------          -----
     (2,0,0)        1.00000E-12
     (0,2,0)        2.00000E-11
     (0,0,2)       -3.00000E-11
 Nucleus-field energy     = 1.6964277253e-08 hartrees
 Requested basis set is aug-cc-pVTZ
 There are 436 shells and 1430 basis functions
 A cutoff of  1.0D-12 yielded  65732 shell pairs
 There are    664846 function pairs (    927831 Cartesian)
 Smallest overlap matrix eigenvalue = 3.48E-06
 Guess MOs from SCF MO coefficient file

 -----------------------------------------------------------------------
  General SCF calculation program by
  Eric Jon Sundstrom, Paul Horn, Yuezhi Mao, Dmitri Zuev, Alec White,
  David Stuck, Shaama M.S., Shane Yost, Joonho Lee, David Small,
  Daniel Levine, Susi Lehtola, Hugh Burton, Evgeny Epifanovsky,
  Bang C. Huynh
 -----------------------------------------------------------------------
 Exchange:     0.2000 Hartree-Fock + 0.0800 Slater + 0.7200 B88
 Correlation:  0.1900 VWN1RPA + 0.8100 LYP
 Using SG-1 standard quadrature grid
 ---- BrianQC HCore successfully initialized ---- 
 ---- BrianQC J/K successfully initialized ---- 
 ---- BrianQC XC successfully initialized ---- 
BrianQC JK build time 32.0000000000 (s)
BrianQC XC build time 1.0000000000 (s)
 A restricted SCF calculation will be
 performed using DIIS
 SCF converges when DIIS error is below 1.0e-08
 ---------------------------------------
  Cycle       Energy         DIIS error
 ---------------------------------------
BrianQC JK build time 2.8e+01 (s)
BrianQC XC build time 1.0e+00 (s)
    1   -2777.4972450186      1.58e-04  
BrianQC JK build time 2.40e+01 (s)
BrianQC XC build time 1.00e+00 (s)
    2   -2777.5018146570      1.69e-05  
BrianQC JK build time 2.20e+01 (s)
BrianQC XC build time 1.00e+00 (s)
    3   -2777.5018028395      2.20e-05  
BrianQC JK build time 1.90e+01 (s)
BrianQC XC build time 0.00e+00 (s)
    4   -2777.5018709608      3.43e-06  
BrianQC JK build time 1.80e+01 (s)
BrianQC XC build time 1.00e+00 (s)
    5   -2777.5018720009      2.10e-06  
BrianQC JK build time 1.70e+01 (s)
BrianQC XC build time 1.00e+00 (s)
    6   -2777.5018727484      5.93e-07  
BrianQC JK build time 1.50e+01 (s)
BrianQC XC build time 1.00e+00 (s)
    7   -2777.5018728118      1.20e-07  
BrianQC JK build time 1.30e+01 (s)
BrianQC XC build time 1.00e+00 (s)
    8   -2777.5018728128      3.30e-08  
BrianQC JK build time 1.30e+01 (s)
BrianQC XC build time 1.00e+00 (s)
    9   -2777.5018728131      1.02e-08  
   10   -2777.5018728040      4.31e-09  Convergence criterion met
 ---------------------------------------
 SCF time:   CPU 832.32s  wall 223.00s 
 SCF   energy = -2777.50187280
 Total energy = -2777.50187280
 
 --------------------------------------------------------------
 
                    Orbital Energies (a.u.)
 --------------------------------------------------------------
 
 Alpha MOs
 -- Occupied --
-88.9482 -24.6991 -24.6989 -24.6987 -24.6981 -24.6977 -24.6963 -24.6943
-24.6731 -24.6707 -24.6701 -24.6686 -24.6684 -24.6514 -24.6280 -24.6260
-24.5971 -24.5971 -19.1671 -19.1265 -18.9628 -18.9621 -18.9618 -10.4141
-10.4138 -10.3863 -10.3811 -10.3465 -10.3305 -10.3138 -10.2468  -7.9665
 -5.9317  -5.9296  -5.9296  -1.3060  -1.2990  -1.2748  -1.2567  -1.2343
 -1.2146  -1.2133  -1.2126  -1.2114  -1.2108  -1.1932  -1.1837  -1.1835
 -1.1824  -1.1606  -1.1415  -1.1027  -1.0760  -1.0328  -0.9734  -0.8397
 -0.8391  -0.8037  -0.7551  -0.7021  -0.6860  -0.6812  -0.6428  -0.6196
 -0.6031  -0.5994  -0.5909  -0.5843  -0.5768  -0.5710  -0.5666  -0.5599
 -0.5575  -0.5542  -0.5522  -0.5360  -0.5302  -0.5198  -0.5002  -0.4938
 -0.4741  -0.4708  -0.4584  -0.4551  -0.4493  -0.4491  -0.4486  -0.4431
 -0.4404  -0.4292  -0.4273  -0.4224  -0.4210  -0.4186  -0.4178  -0.4117
 -0.4068  -0.4049  -0.4001  -0.3970  -0.3954  -0.3932  -0.3913  -0.3902
 -0.3864  -0.3765  -0.3720  -0.3690  -0.3663  -0.3622  -0.3617  -0.3517
 -0.3466  -0.3391  -0.3301  -0.3248  -0.3093  -0.3081  -0.3043  -0.3032
 -0.3020  -0.2800  -0.2765  -0.1978  -0.1975  -0.1682  -0.1666  -0.1550
 -0.1204
 -- Virtual --
  0.0517   0.0627   0.0691   0.0763   0.0898   0.0964   0.0970   0.1019
  0.1067   0.1070   0.1116   0.1224   0.1280   0.1312   0.1339   0.1359
  0.1373   0.1387   0.1484   0.1494   0.1550   0.1625   0.1650   0.1679
  0.1703   0.1726   0.1749   0.1773   0.1788   0.1806   0.1842   0.1862
  0.1880   0.1910   0.1947   0.1972   0.2023   0.2038   0.2077   0.2111
  0.2142   0.2204   0.2244   0.2310   0.2322   0.2347   0.2360   0.2377
  0.2403   0.2421   0.2446   0.2463   0.2482   0.2504   0.2530   0.2560
  0.2573   0.2586   0.2647   0.2656   0.2665   0.2697   0.2712   0.2732
  0.2750   0.2773   0.2797   0.2811   0.2829   0.2837   0.2860   0.2900
  0.2912   0.2956   0.2968   0.2977   0.2996   0.3017   0.3055   0.3056
  0.3093   0.3104   0.3121   0.3161   0.3176   0.3196   0.3213   0.3248
  0.3275   0.3296   0.3320   0.3330   0.3360   0.3371   0.3397   0.3411
  0.3432   0.3480   0.3493   0.3514   0.3546   0.3573   0.3579   0.3617
  0.3659   0.3681   0.3692   0.3756   0.3771   0.3794   0.3840   0.3848
  0.3876   0.3901   0.3909   0.3962   0.3990   0.4031   0.4073   0.4091
  0.4141   0.4159   0.4195   0.4240   0.4271   0.4327   0.4340   0.4371
  0.4406   0.4460   0.4499   0.4524   0.4544   0.4609   0.4658   0.4689
  0.4719   0.4765   0.4772   0.4824   0.4868   0.4937   0.4947   0.4966
  0.5023   0.5029   0.5072   0.5117   0.5130   0.5158   0.5195   0.5271
  0.5295   0.5336   0.5369   0.5398   0.5445   0.5454   0.5498   0.5509
  0.5555   0.5581   0.5611   0.5633   0.5665   0.5692   0.5709   0.5772
  0.5812   0.5828   0.5879   0.5892   0.5914   0.5966   0.6000   0.6056
  0.6068   0.6114   0.6144   0.6177   0.6217   0.6230   0.6284   0.6331
  0.6356   0.6394   0.6439   0.6503   0.6549   0.6569   0.6618   0.6628
  0.6676   0.6698   0.6720   0.6864   0.6884   0.6927   0.7063   0.7099
  0.7126   0.7154   0.7201   0.7238   0.7349   0.7362   0.7441   0.7507
  0.7546   0.7685   0.7761   0.7798   0.7829   0.7863   0.7886   0.7909
  0.7936   0.7969   0.8006   0.8045   0.8068   0.8083   0.8115   0.8164
  0.8205   0.8250   0.8281   0.8355   0.8405   0.8479   0.8482   0.8542
  0.8591   0.8617   0.8687   0.8758   0.8822   0.8851   0.8910   0.8915
  0.8989   0.9039   0.9045   0.9055   0.9162   0.9199   0.9242   0.9271
  0.9292   0.9347   0.9359   0.9415   0.9515   0.9541   0.9575   0.9585
  0.9675   0.9688   0.9762   0.9802   0.9856   0.9928   0.9971   0.9986
  1.0016   1.0034   1.0054   1.0094   1.0106   1.0165   1.0219   1.0257
  1.0281   1.0303   1.0344   1.0404   1.0428   1.0432   1.0508   1.0569
  1.0581   1.0652   1.0686   1.0709   1.0721   1.0779   1.0818   1.0836
  1.0862   1.0884   1.0916   1.0964   1.1043   1.1094   1.1103   1.1131
  1.1164   1.1191   1.1252   1.1278   1.1355   1.1374   1.1446   1.1483
  1.1510   1.1533   1.1602   1.1626   1.1645   1.1673   1.1711   1.1760
  1.1795   1.1824   1.1870   1.1914   1.1969   1.2001   1.2045   1.2072
  1.2126   1.2142   1.2197   1.2211   1.2232   1.2265   1.2335   1.2361
  1.2373   1.2390   1.2443   1.2507   1.2524   1.2600   1.2617   1.2662
  1.2671   1.2712   1.2736   1.2821   1.2867   1.2913   1.2948   1.2969
  1.2992   1.3003   1.3040   1.3053   1.3093   1.3146   1.3190   1.3250
  1.3298   1.3339   1.3380   1.3420   1.3442   1.3506   1.3520   1.3565
  1.3608   1.3639   1.3701   1.3741   1.3806   1.3855   1.3874   1.3918
  1.4016   1.4094   1.4130   1.4168   1.4182   1.4243   1.4258   1.4294
  1.4320   1.4394   1.4421   1.4435   1.4504   1.4520   1.4574   1.4599
  1.4647   1.4705   1.4776   1.4841   1.4887   1.4907   1.4950   1.4976
  1.5011   1.5056   1.5140   1.5163   1.5233   1.5264   1.5310   1.5329
  1.5411   1.5445   1.5478   1.5505   1.5556   1.5593   1.5622   1.5699
  1.5829   1.5871   1.5929   1.5960   1.5972   1.5982   1.6041   1.6084
  1.6146   1.6204   1.6238   1.6272   1.6286   1.6341   1.6437   1.6462
  1.6514   1.6661   1.6676   1.6734   1.6766   1.6826   1.6880   1.6887
  1.6953   1.6960   1.6998   1.7079   1.7166   1.7185   1.7257   1.7308
  1.7374   1.7430   1.7515   1.7539   1.7588   1.7662   1.7728   1.7789
  1.7843   1.7884   1.7949   1.8006   1.8045   1.8075   1.8110   1.8179
  1.8251   1.8322   1.8406   1.8434   1.8508   1.8548   1.8646   1.8669
  1.8758   1.8813   1.8881   1.8976   1.9012   1.9123   1.9173   1.9214
  1.9264   1.9323   1.9355   1.9478   1.9575   1.9613   1.9744   1.9774
  1.9861   1.9875   1.9945   2.0036   2.0104   2.0186   2.0229   2.0292
  2.0364   2.0421   2.0533   2.0599   2.0655   2.0680   2.0720   2.0833
  2.0850   2.0904   2.1007   2.1068   2.1133   2.1246   2.1287   2.1312
  2.1394   2.1461   2.1513   2.1574   2.1600   2.1709   2.1757   2.1820
  2.1909   2.1986   2.2142   2.2161   2.2221   2.2294   2.2315   2.2342
  2.2471   2.2573   2.2736   2.2899   2.2914   2.3115   2.3190   2.3241
  2.3336   2.3385   2.3512   2.3575   2.3681   2.3764   2.3850   2.3975
  2.4002   2.4153   2.4221   2.4310   2.4398   2.4449   2.4483   2.4602
  2.4644   2.4792   2.4819   2.4852   2.4892   2.4979   2.4994   2.5116
  2.5197   2.5237   2.5278   2.5290   2.5414   2.5448   2.5483   2.5568
  2.5620   2.5702   2.5715   2.5768   2.5824   2.5863   2.5902   2.5989
  2.6046   2.6124   2.6163   2.6184   2.6251   2.6274   2.6344   2.6368
  2.6402   2.6442   2.6484   2.6504   2.6544   2.6614   2.6638   2.6649
  2.6718   2.6791   2.6827   2.6851   2.6874   2.6893   2.6933   2.6980
  2.7019   2.7105   2.7131   2.7200   2.7238   2.7284   2.7337   2.7405
  2.7438   2.7463   2.7504   2.7564   2.7596   2.7668   2.7682   2.7758
  2.7793   2.7827   2.7865   2.7927   2.8006   2.8072   2.8081   2.8146
  2.8217   2.8231   2.8301   2.8345   2.8373   2.8435   2.8481   2.8502
  2.8546   2.8596   2.8667   2.8688   2.8712   2.8773   2.8844   2.8883
  2.8942   2.9014   2.9037   2.9079   2.9101   2.9166   2.9232   2.9310
  2.9334   2.9343   2.9371   2.9428   2.9541   2.9562   2.9582   2.9667
  2.9735   2.9740   2.9817   2.9852   2.9937   2.9952   3.0024   3.0059
  3.0140   3.0186   3.0197   3.0259   3.0336   3.0362   3.0386   3.0434
  3.0505   3.0525   3.0564   3.0600   3.0627   3.0703   3.0724   3.0774
  3.0850   3.0914   3.0937   3.0968   3.1006   3.1023   3.1073   3.1151
  3.1234   3.1246   3.1284   3.1382   3.1406   3.1443   3.1517   3.1558
  3.1619   3.1662   3.1758   3.1820   3.1875   3.1926   3.2013   3.2024
  3.2057   3.2082   3.2137   3.2163   3.2250   3.2263   3.2395   3.2441
  3.2469   3.2559   3.2613   3.2663   3.2692   3.2738   3.2767   3.2822
  3.2841   3.2892   3.2938   3.2984   3.3082   3.3095   3.3160   3.3204
  3.3312   3.3334   3.3350   3.3417   3.3422   3.3512   3.3573   3.3657
  3.3689   3.3710   3.3805   3.3894   3.3896   3.3929   3.3952   3.4084
  3.4110   3.4220   3.4255   3.4268   3.4329   3.4379   3.4408   3.4496
  3.4532   3.4557   3.4638   3.4703   3.4711   3.4758   3.4868   3.4899
  3.4922   3.4988   3.5000   3.5062   3.5077   3.5177   3.5230   3.5287
  3.5342   3.5356   3.5405   3.5461   3.5466   3.5556   3.5624   3.5671
  3.5731   3.5765   3.5881   3.5909   3.6016   3.6075   3.6109   3.6127
  3.6199   3.6278   3.6314   3.6354   3.6391   3.6427   3.6519   3.6607
  3.6668   3.6680   3.6695   3.6779   3.6796   3.6896   3.7027   3.7028
  3.7094   3.7163   3.7192   3.7304   3.7396   3.7443   3.7496   3.7514
  3.7534   3.7628   3.7769   3.7856   3.7887   3.7963   3.8012   3.8095
  3.8162   3.8217   3.8278   3.8415   3.8460   3.8553   3.8670   3.8697
  3.8743   3.8812   3.8847   3.8961   3.8979   3.9090   3.9136   3.9207
  3.9330   3.9416   3.9537   3.9565   3.9639   3.9689   3.9764   3.9838
  3.9890   3.9930   3.9958   4.0085   4.0174   4.0202   4.0321   4.0346
  4.0432   4.0487   4.0602   4.0658   4.0732   4.0775   4.0813   4.0895
  4.0926   4.1072   4.1184   4.1212   4.1274   4.1347   4.1440   4.1632
  4.1648   4.1679   4.1792   4.1962   4.2059   4.2152   4.2180   4.2253
  4.2280   4.2445   4.2486   4.2549   4.2600   4.2687   4.2822   4.2955
  4.3000   4.3120   4.3184   4.3339   4.3523   4.3684   4.3788   4.3825
  4.3923   4.3970   4.4013   4.4091   4.4237   4.4341   4.4617   4.4702
  4.4806   4.4890   4.5023   4.5091   4.5309   4.5384   4.5449   4.5549
  4.5609   4.5741   4.5802   4.5947   4.6099   4.6216   4.6248   4.6409
  4.6508   4.6626   4.6643   4.6850   4.6915   4.6976   4.7040   4.7176
  4.7196   4.7299   4.7322   4.7448   4.7471   4.7563   4.7806   4.8047
  4.8143   4.8183   4.8263   4.8362   4.8448   4.8514   4.8652   4.8966
  4.9106   4.9252   4.9382   4.9529   4.9661   4.9812   4.9925   5.0176
  5.0468   5.0572   5.0822   5.0927   5.1366   5.1648   5.2010   5.2272
  5.2438   5.2589   5.2961   5.3186   5.3305   5.3375   5.3495   5.3588
  5.3758   5.3883   5.4090   5.4191   5.4235   5.4506   5.4566   5.4660
  5.4830   5.4842   5.4857   5.4991   5.5143   5.5272   5.5428   5.5511
  5.5541   5.5811   5.5884   5.5988   5.6066   5.6167   5.6504   5.6695
  5.6703   5.7167   5.7413   5.7605   5.7991   5.8186   5.8388   5.8942
  5.9202   6.0480   6.0986   6.2820   6.3513   6.3673   6.3704   6.3891
  6.3978   6.4253   6.4358   6.4579   6.5136   6.5239   6.5268   6.5475
  6.5711   6.5843   6.5993   6.6136   6.6253   6.6260   6.6340   6.6389
  6.6417   6.6524   6.6572   6.6672   6.6737   6.7108   6.7229   6.7508
  6.7626   6.7696   6.7829   6.8120   6.8214   6.8338   6.8459   6.8550
  6.8606   6.8631   6.8810   6.8887   6.8994   6.9004   6.9321   6.9362
  6.9400   6.9511   6.9567   6.9634   6.9927   7.0093   7.0307   7.0657
  7.0827   7.0973   7.1127   7.1255   7.1628   7.1948   7.2017   7.2368
  7.2465   7.2556   7.2638   7.2670   7.2822   7.3177   7.3319   7.3882
  7.4393   7.4545   7.4629   7.4692   7.5898   7.6691   7.8517   7.9150
  7.9536   8.0732   8.4022   8.4277   8.4326   8.4436   8.4493   8.4588
  8.4704   8.4787   8.4839   8.4898   8.4936   8.4963   8.5041   8.5118
  8.5147   8.5239   8.5261   8.5335   8.5360   8.5483   8.5622   8.5652
  8.5708   8.5807   8.5914   8.6033   8.6111   8.6159   8.6171   8.6300
  8.6376   8.6438   8.6534   8.6714   8.6866   8.7018   8.7045   8.7163
  8.7240   8.7340   8.7407   8.7543   8.7634   8.7740   8.7831   8.7892
  8.7971   8.8013   8.8079   8.8120   8.8142   8.8208   8.8227   8.8306
  8.8357   8.8387   8.8448   8.8475   8.8546   8.8564   8.8627   8.8697
  8.8719   8.8739   8.8814   8.8845   8.8889   8.8902   8.8924   8.8946
  8.8961   8.9036   8.9085   8.9110   8.9178   8.9241   8.9298   8.9322
  8.9368   8.9431   8.9446   8.9531   8.9533   8.9554   8.9579   8.9623
  8.9649   8.9674   8.9711   8.9757   8.9787   8.9815   8.9884   8.9915
  8.9948   8.9962   9.0008   9.0055   9.0079   9.0092   9.0165   9.0190
  9.0239   9.0272   9.0312   9.0324   9.0336   9.0407   9.0488   9.0496
  9.0518   9.0591   9.0646   9.0652   9.0683   9.0736   9.0769   9.0819
  9.0832   9.0890   9.0939   9.0952   9.1019   9.1035   9.1076   9.1117
  9.1158   9.1194   9.1216   9.1295   9.1337   9.1387   9.1436   9.1449
  9.1487   9.1533   9.1563   9.1627   9.1635   9.1687   9.1708   9.1748
  9.1815   9.1825   9.1865   9.1911   9.1914   9.1972   9.2060   9.2093
  9.2115   9.2186   9.2240   9.2300   9.2319   9.2348   9.2388   9.2430
  9.2545   9.2575   9.2645   9.2655   9.2775   9.2820   9.2959   9.3009
  9.3034   9.3161   9.3229   9.3273   9.3489   9.3587   9.3678   9.3739
  9.3937   9.3992   9.4037   9.4187   9.4343   9.4355   9.4416   9.4534
  9.4550   9.4772   9.4863   9.4939   9.5008   9.5023   9.5117   9.5121
  9.5301   9.5498   9.5751   9.5908   9.6177   9.6245   9.6400   9.6424
  9.6552   9.6704   9.6950   9.6986   9.7141   9.7296  12.0774  12.1607
 12.4801  13.7331  15.0729  15.2470  15.3138  15.4118  15.4752  15.5289
 15.6321  15.7302  15.7545  15.8236  15.8932  15.9362  16.0032  16.1972
 16.3137  16.4351  16.5878  16.6749  16.7854  17.2385  17.5410  17.7301
 17.8134  18.3198  18.8752  18.9168  19.2362
 --------------------------------------------------------------
 
          Ground-State Mulliken Net Atomic Charges

     Atom                 Charge (a.u.)
  ----------------------------------------
      1 C                     0.949521
      2 F                    -0.393823
      3 F                    -0.403544
      4 C                     1.221255
      5 O                    -0.488577
      6 C                     1.337412
      7 C                     1.042296
      8 F                    -0.595663
      9 F                    -0.396671
     10 C                     0.952528
     11 F                    -0.412343
     12 F                    -0.556775
     13 F                    -0.398813
     14 F                    -0.401129
     15 F                    -0.513587
     16 F                    -0.463485
     17 O                    -0.388893
     18 C                     1.223903
     19 C                     0.978565
     20 C                     0.690729
     21 F                    -0.472408
     22 F                    -0.458392
     23 S                     2.033841
     24 F                    -0.501671
     25 F                    -0.486817
     26 F                    -0.411628
     27 F                    -0.424894
     28 F                    -0.406267
     29 O                    -0.945500
     30 O                    -0.950241
     31 O                    -0.958928
  ----------------------------------------
  Sum of atomic charges =    -1.000000

 -----------------------------------------------------------------
                    Cartesian Multipole Moments
 -----------------------------------------------------------------
    Charge (ESU x 10^10)
                -4.8032
    Dipole Moment (Debye)
         X      22.2472      Y      -2.2109      Z       0.4376
       Tot      22.3610
    Quadrupole Moments (Debye-Ang)
        XX    -314.9893     XY      12.8616     YY    -187.4359
        XZ      -3.4322     YZ       0.7489     ZZ    -186.1133
    Octopole Moments (Debye-Ang^2)
       XXX     817.4715    XXY     -81.5322    XYY      75.6736
       YYY     -23.7284    XXZ      24.8597    XYZ      -0.6410
       YYZ       5.8785    XZZ      68.1381    YZZ      -4.1776
       ZZZ      -1.0373
    Hexadecapole Moments (Debye-Ang^3)
      XXXX  -18282.0604   XXXY     499.2790   XXYY   -2896.1692
      XYYY     145.6322   YYYY   -1929.6334   XXXZ    -137.5831
      XXYZ      21.9078   XYYZ     -34.3282   YYYZ      23.7812
      XXZZ   -2706.2842   XYZZ      37.8966   YYZZ    -503.7284
      XZZZ      10.1861   YZZZ      15.9128   ZZZZ   -1107.7222
 -----------------------------------------------------------------
 Calculating analytic gradient of the SCF energy
 ---- BrianQC J/K successfully initialized ---- 
